chemcompute.org
{'UTCtimestamp': '2022-10-31T05:27:30.502229', 'cluster': 'jetstream2', 'clusterJobNumber': '141894', 'status': 'RUNNING', 'nodeList': 'chemcompute-node-0'}
----- GAMESS execution script 'rungms' -----
This job is running on host chemcompute-node-0.novalocal
under operating system Linux at Mon Oct 31 05:27:34 UTC 2022
SLURM has assigned the following compute nodes to this run:
Available scratch disk space (Kbyte units) at beginning of the job is
Filesystem     1K-blocks     Used Available Use% Mounted on
/dev/sda1       62903276 11594948  51308328  19% /
GAMESS temporary binary files will be written to /scratch/141894
GAMESS supplementary output files will be written to /data/slurm/48/483971
Copying input file 483971.inp to your run's scratch directory...
The generated host list is
chemcompute-node-0.novalocal

 Distributed Data Interface kickoff program.
 Initiating 1 compute processes on 1 nodes to run the following command:
 /data/gamess-2019R1-avx2-ddi/gamess.00.x 483971 

          ******************************************************
          *         GAMESS VERSION = 30 JUN 2019 (R1)          *
          *             FROM IOWA STATE UNIVERSITY             *
          * M.W.SCHMIDT, K.K.BALDRIDGE, J.A.BOATZ, S.T.ELBERT, *
          *   M.S.GORDON, J.H.JENSEN, S.KOSEKI, N.MATSUNAGA,   *
          *          K.A.NGUYEN, S.J.SU, T.L.WINDUS,           *
          *       TOGETHER WITH M.DUPUIS, J.A.MONTGOMERY       *
          *         J.COMPUT.CHEM.  14, 1347-1363(1993)        *
          **************** 64 BIT INTEL VERSION ****************

  SINCE 1993, STUDENTS AND POSTDOCS WORKING AT IOWA STATE UNIVERSITY
  AND ALSO IN THEIR VARIOUS JOBS AFTER LEAVING ISU HAVE MADE IMPORTANT
  CONTRIBUTIONS TO THE CODE:
     IVANA ADAMOVIC, CHRISTINE AIKENS, YURI ALEXEEV, POOJA ARORA,
     ANDREY ASADCHEV, ROB BELL, PRADIPTA BANDYOPADHYAY, JONATHAN BENTZ,
     COLLEEN BERTONI, BRETT BODE, KURT BRORSEN, CALEB CARLIN, GALINA CHABAN,
     WEI CHEN, CHEOL HO CHOI, PAUL DAY, ALBERT DEFUSCO, NUWAN DESILVA,
     TIM DUDLEY, DMITRI FEDOROV, ALEX FINDLATER, GRAHAM FLETCHER, 
     MARK FREITAG, KURT GLAESEMANN, ANASTASIA GUNINA,
     DAN KEMP, GRANT MERRILL, NORIYUKI MINEZAWA, JONATHAN MULLIN,
     TAKESHI NAGATA, SEAN NEDD, HEATHER NETZLOFF, BOSILJKA NJEGIC, RYAN OLSON,
     MIKE PAK, BUU PHAM,
     SPENCER PRUITT, LUKE ROSKOP, JIM SHOEMAKER, LYUDMILA SLIPCHENKO,
     TONY SMITH, SAROM SOK LEANG, JIE SONG, TETSUYA TAKETSUGU, SIMON WEBB,
     PENG XU, SOOHAENG YOO, FEDERICO ZAHARIEV

  ADDITIONAL CODE HAS BEEN PROVIDED BY COLLABORATORS IN OTHER GROUPS:
     IOWA STATE UNIVERSITY:
          JOE IVANIC, AARON WEST, LAIMUTIS BYTAUTAS, KLAUS RUEDENBERG
     UNIVERSITY OF TOKYO: KIMIHIKO HIRAO, TAKAHITO NAKAJIMA,
          TAKAO TSUNEDA, MUNEAKI KAMIYA, SUSUMU YANAGISAWA,
          KIYOSHI YAGI, MAHITO CHIBA, SEIKEN TOKURA, NAOAKI KAWAKAMI
     UNIVERSITY OF AARHUS: FRANK JENSEN
     UNIVERSITY OF IOWA: VISVALDAS KAIRYS, HUI LI
     NATIONAL INST. OF STANDARDS AND TECHNOLOGY: WALT STEVENS, DAVID GARMER
     UNIVERSITY OF PISA: BENEDETTA MENNUCCI, JACOPO TOMASI
     UNIVERSITY OF MEMPHIS: HENRY KURTZ, PRAKASHAN KORAMBATH
     UNIVERSITY OF ALBERTA: TOBY ZENG, MARIUSZ KLOBUKOWSKI
     UNIVERSITY OF NEW ENGLAND: MARK SPACKMAN
     MIE UNIVERSITY: HIROAKI UMEDA
     NAT. INST. OF ADVANCED INDUSTRIAL SCIENCE AND TECHNOLOGY: KAZUO KITAURA
     MICHIGAN STATE UNIVERSITY:
          KAROL KOWALSKI, MARTA WLOCH, JEFFREY GOUR, JESSE LUTZ,
          WEI LI, JUN SHEN, J. EMILIANO DEUSTUA, PIOTR PIECUCH
     UNIVERSITY OF MINNESOTA:
          YINAN SHU
     UNIVERSITY OF SILESIA: MONIKA MUSIAL, STANISLAW KUCHARSKI
     FACULTES UNIVERSITAIRES NOTRE-DAME DE LA PAIX:
          OLIVIER QUINET, BENOIT CHAMPAGNE
     UNIVERSITY OF CALIFORNIA - SANTA BARBARA: BERNARD KIRTMAN
     INSTITUTE FOR MOLECULAR SCIENCE:
          KAZUYA ISHIMURA, MICHIO KATOUDA, AND SHIGERU NAGASE
     UNIVERSITY OF NOTRE DAME: ANNA POMOGAEVA, DAN CHIPMAN
     KYUSHU UNIVERSITY:
          HARUYUKI NAKANO,
          FENG LONG GU, JACEK KORCHOWIEC, MARCIN MAKOWSKI, AND YURIKO AOKI,
          HIROTOSHI MORI AND EISAKU MIYOSHI
     PENNSYLVANIA STATE UNIVERSITY:
          TZVETELIN IORDANOV, CHET SWALINA, JONATHAN SKONE,
          SHARON HAMMES-SCHIFFER
     WASEDA UNIVERSITY:
          MASATO KOBAYASHI, TOMOKO AKAMA, TSUGUKI TOUMA,
          TAKESHI YOSHIKAWA, YASUHIRO IKABATA, JUNJI SEINO,
          YUYA NAKAJIMA, HIROMI NAKAI
     NANJING UNIVERSITY: SHUHUA LI
     UNIVERSITY OF NEBRASKA:
          PEIFENG SU, DEJUN SI, NANDUN THELLAMUREGE, YALI WANG, HUI LI
     UNIVERSITY OF ZURICH: ROBERTO PEVERATI, KIM BALDRIDGE
     N. COPERNICUS UNIVERSITY AND JACKSON STATE UNIVERSITY:
          MARIA BARYSZ
     UNIVERSITY OF COPENHAGEN: Jimmy Kromann, CASPER STEINMANN
     TOKYO INSTITUTE OF TECHNOLOGY: HIROYA NAKATA
     NAGOYA UNIVERSITY: YOSHIO NISHIMOTO, STEPHAN IRLE
     MOSCOW STATE UNIVERSITY: VLADIMIR MIRONOV
     A.N.NESMEYANOV INSTITUTE OF ORGANOELEMENT COMPOUNDS OF RUSSIAN ACADEMY OF SCIENCES:
          IGOR S. GERASIMOV

 EXECUTION OF GAMESS BEGUN Mon Oct 31 05:27:34 2022

            ECHO OF THE FIRST FEW INPUT CARDS -
 INPUT CARD>!                                                                               
 INPUT CARD>!   GAMESS Calculation input file                                               
 INPUT CARD>!                                                                               
 INPUT CARD>!                                                                               
 INPUT CARD> $CONTRL SCFTYP=UHF MAXIT=200 RUNTYP=OPTIMIZE                                   
 INPUT CARD>         COORD=UNIQUE MULT=2                                                    
 INPUT CARD>         ICHARG=0                                                               
 INPUT CARD>         MOLPLT=.FALSE. PLTORB=.FALSE.  $END                                    
 INPUT CARD> $SYSTEM TIMLIM=2879 MWORDS=250  $END                                           
 INPUT CARD>                                                                                
 INPUT CARD> $STATPT OPTTOL=0.0005 NSTEP=999 $END                                           
 INPUT CARD> $STATPT IHREP=0  $END                                                          
 INPUT CARD>                                                                                
 INPUT CARD> $BASIS  GBASIS=N31 NGAUSS=6                                                    
 INPUT CARD>         NDFUNC=1   NPFUNC=0  $END                                              
 INPUT CARD>                                                                                
 INPUT CARD> $SCF    DIRSCF=.T. $END                                                        
 INPUT CARD> $GUESS  GUESS=HUCKEL  $END                                                     
 INPUT CARD>                                                                                
 INPUT CARD> $DATA                                                                          
 INPUT CARD>                                                                                
 INPUT CARD>  C1                                                                            
 INPUT CARD>C     6.0    -0.43727    -0.65295    -0.82693                                   
 INPUT CARD>C     6.0     0.01596     0.76756    -0.84212                                   
 INPUT CARD>C     6.0    -1.06567     1.61941    -0.25330                                   
 INPUT CARD>C     6.0    -2.31288     0.73687    -0.30426                                   
 INPUT CARD>C     6.0    -1.81145    -0.70664    -0.23559                                   
 INPUT CARD>Br   35.0     0.99034    -0.31149     0.42074                                   
 INPUT CARD>H     1.0    -0.14610    -1.39581    -1.55993                                   
 INPUT CARD>H     1.0     0.67257     1.18723    -1.59447                                   
 INPUT CARD>H     1.0    -1.21956     2.52379    -0.85152                                   
 INPUT CARD>H     1.0    -0.85644     1.95322     0.77038                                   
 INPUT CARD>H     1.0    -2.82780     0.89519    -1.25918                                   
 INPUT CARD>H     1.0    -3.02944     0.97269     0.48871                                   
 INPUT CARD>H     1.0    -2.46344    -1.35776    -0.82693                                   
 INPUT CARD>H     1.0    -1.83465    -1.08904     0.79228                                   
 INPUT CARD> $END                                                                           
 INPUT CARD>                                                                                
 INPUT CARD>                                                                                
 INPUT CARD>! Customizations after this line are persisted when using Do More Calculations  
  250000000 WORDS OF MEMORY AVAILABLE

     BASIS OPTIONS
     -------------
     GBASIS=N31          IGAUSS=       6      POLAR=POPN31  
     NDFUNC=       1     NFFUNC=       0     DIFFSP=       F
     NPFUNC=       0      DIFFS=       F     BASNAM=        


     RUN TITLE
     ---------
                                                                                 

 THE POINT GROUP OF THE MOLECULE IS C1      
 THE ORDER OF THE PRINCIPAL AXIS IS     0

 ATOM      ATOMIC                      COORDINATES (BOHR)
           CHARGE         X                   Y                   Z
 C           6.0    -0.8263204827       -1.2338965837       -1.5626711110
 C           6.0     0.0301600268        1.4504780791       -1.5913760488
 C           6.0    -2.0138242933        3.0602411618       -0.4786675927
 C           6.0    -4.3707094425        1.3924823886       -0.5749680290
 C           6.0    -3.4231441405       -1.3353559720       -0.4452005454
 BR         35.0     1.8714712347       -0.5886307479        0.7950833121
 H           1.0    -0.2760889668       -2.6376984309       -2.9478402600
 H           1.0     1.2709730076        2.2435393844       -3.0131113956
 H           1.0    -2.3046342256        4.7692715506       -1.6091394731
 H           1.0    -1.6184369249        3.6910505937        1.4558071064
 H           1.0    -5.3437671481        1.6916638069       -2.3795051692
 H           1.0    -5.7248114962        1.8381175710        0.9235279875
 H           1.0    -4.6552265872       -2.5657943571       -1.5626711110
 H           1.0    -3.4669857834       -2.0579871897        1.4971921056

          INTERNUCLEAR DISTANCES (ANGS.)
          ------------------------------

                1 C          2 C          3 C          4 C          5 C     

   1 C       0.0000000    1.4911394 *  2.4264290 *  2.3922158 *  1.4969757 *
   2 C       1.4911394 *  0.0000000    1.4974247 *  2.3903412 *  2.4249890 *
   3 C       2.4264290 *  1.4974247 *  0.0000000    1.5287271 *  2.4427464 *
   4 C       2.3922158 *  2.3903412 *  1.5287271 *  0.0000000    1.5296629 *
   5 C       1.4969757 *  2.4249890 *  2.4427464 *  1.5296629 *  0.0000000  
   6 BR      1.9264853 *  1.9257676 *  2.8999796 *  3.5406138    2.9046411 *
   7 H       1.0834712 *  2.2851005 *  3.4123954    3.2893718    2.2365649 *
   8 H       2.2819126 *  1.0831852 *  2.2376315 *  3.2833485    3.4064136  
   9 H       3.2717364    2.1473104 *  1.0951952 *  2.1651617 *  3.3414640  
  10 H       3.0853241    2.1833524 *  1.0968715 *  2.1807283 *  2.9998125 *
  11 H       2.8806616 *  2.8770122 *  2.1543889 *  1.0963941 *  2.1555888 *
  12 H       3.3306095    3.3298120    2.1966379 *  1.0944728 *  2.1973301 *
  13 H       2.1452557 *  3.2656761    3.3386155    2.1640996 *  1.0948658 *
  14 H       2.1828162 *  3.0891721    3.0033763    2.1828997 *  1.0969434 *

                6 BR         7 H          8 H          9 H         10 H     

   1 C       1.9264853 *  1.0834712 *  2.2819126 *  3.2717364    3.0853241  
   2 C       1.9257676 *  2.2851005 *  1.0831852 *  2.1473104 *  2.1833524 *
   3 C       2.8999796 *  3.4123954    2.2376315 *  1.0951952 *  1.0968715 *
   4 C       3.5406138    3.2893718    3.2833485    2.1651617 *  2.1807283 *
   5 C       2.9046411 *  2.2365649 *  3.4064136    3.3414640    2.9998125 *
   6 BR      0.0000000    2.5279041 *  2.5314444 *  3.8132816    2.9430861 *
   7 H       2.5279041 *  0.0000000    2.7098910 *  4.1252182    4.1413681  
   8 H       2.5314444 *  2.7098910 *  0.0000000    2.4328015 *  2.9184119 *
   9 H       3.8132816    4.1252182    2.4328015 *  0.0000000    1.7572609 *
  10 H       2.9430861 *  4.1413681    2.9184119 *  1.7572609 *  0.0000000  
  11 H       4.3423958    3.5398653    3.5284978    2.3248571 *  3.0207286  
  12 H       4.2204703    4.2568025    4.2532981    2.7345554 *  2.4005637 *
  13 H       3.8183711    2.4308026 *  4.1110401    4.0760609    4.0120365  
  14 H       2.9535055 *  2.9117350 *  4.1429618    4.0165850    3.1957347  

               11 H         12 H         13 H         14 H     

   1 C       2.8806616 *  3.3306095    2.1452557 *  2.1828162 *
   2 C       2.8770122 *  3.3298120    3.2656761    3.0891721  
   3 C       2.1543889 *  2.1966379 *  3.3386155    3.0033763  
   4 C       1.0963941 *  1.0944728 *  2.1640996 *  2.1828997 *
   5 C       2.1555888 *  2.1973301 *  1.0948658 *  1.0969434 *
   6 BR      4.3423958    4.2204703    3.8183711    2.9535055 *
   7 H       3.5398653    4.2568025    2.4308026 *  2.9117350 *
   8 H       3.5284978    4.2532981    4.1110401    4.1429618  
   9 H       2.3248571 *  2.7345554 *  4.0760609    4.0165850  
  10 H       3.0207286    2.4005637 *  4.0120365    3.1957347  
  11 H       0.0000000    1.7611883 *  2.3227962 *  3.0219205  
  12 H       1.7611883 *  0.0000000    2.7353723 *  2.4021675 *
  13 H       2.3227962 *  2.7353723 *  0.0000000    1.7576770 *
  14 H       3.0219205    2.4021675 *  1.7576770 *  0.0000000  

  * ... LESS THAN  3.000


     ATOMIC BASIS SET
     ----------------
 THE CONTRACTED PRIMITIVE FUNCTIONS HAVE BEEN UNNORMALIZED
 THE CONTRACTED BASIS FUNCTIONS ARE NOW NORMALIZED TO UNITY

  SHELL TYPE  PRIMITIVE        EXPONENT          CONTRACTION COEFFICIENT(S)

 C         

      1   S       1          3047.5248800    0.001834737132
      1   S       2           457.3695180    0.014037322813
      1   S       3           103.9486850    0.068842622264
      1   S       4            29.2101553    0.232184443216
      1   S       5             9.2866630    0.467941348435
      1   S       6             3.1639270    0.362311985337

      2   L       7             7.8682723   -0.119332419775    0.068999066591
      2   L       8             1.8812885   -0.160854151696    0.316423960957
      2   L       9             0.5442493    1.143456437840    0.744308290898

      3   L      10             0.1687145    1.000000000000    1.000000000000

      4   D      11             0.8000000    1.000000000000

 C         

      5   S      12          3047.5248800    0.001834737132
      5   S      13           457.3695180    0.014037322813
      5   S      14           103.9486850    0.068842622264
      5   S      15            29.2101553    0.232184443216
      5   S      16             9.2866630    0.467941348435
      5   S      17             3.1639270    0.362311985337

      6   L      18             7.8682723   -0.119332419775    0.068999066591
      6   L      19             1.8812885   -0.160854151696    0.316423960957
      6   L      20             0.5442493    1.143456437840    0.744308290898

      7   L      21             0.1687145    1.000000000000    1.000000000000

      8   D      22             0.8000000    1.000000000000

 C         

      9   S      23          3047.5248800    0.001834737132
      9   S      24           457.3695180    0.014037322813
      9   S      25           103.9486850    0.068842622264
      9   S      26            29.2101553    0.232184443216
      9   S      27             9.2866630    0.467941348435
      9   S      28             3.1639270    0.362311985337

     10   L      29             7.8682723   -0.119332419775    0.068999066591
     10   L      30             1.8812885   -0.160854151696    0.316423960957
     10   L      31             0.5442493    1.143456437840    0.744308290898

     11   L      32             0.1687145    1.000000000000    1.000000000000

     12   D      33             0.8000000    1.000000000000

 C         

     13   S      34          3047.5248800    0.001834737132
     13   S      35           457.3695180    0.014037322813
     13   S      36           103.9486850    0.068842622264
     13   S      37            29.2101553    0.232184443216
     13   S      38             9.2866630    0.467941348435
     13   S      39             3.1639270    0.362311985337

     14   L      40             7.8682723   -0.119332419775    0.068999066591
     14   L      41             1.8812885   -0.160854151696    0.316423960957
     14   L      42             0.5442493    1.143456437840    0.744308290898

     15   L      43             0.1687145    1.000000000000    1.000000000000

     16   D      44             0.8000000    1.000000000000

 C         

     17   S      45          3047.5248800    0.001834737132
     17   S      46           457.3695180    0.014037322813
     17   S      47           103.9486850    0.068842622264
     17   S      48            29.2101553    0.232184443216
     17   S      49             9.2866630    0.467941348435
     17   S      50             3.1639270    0.362311985337

     18   L      51             7.8682723   -0.119332419775    0.068999066591
     18   L      52             1.8812885   -0.160854151696    0.316423960957
     18   L      53             0.5442493    1.143456437840    0.744308290898

     19   L      54             0.1687145    1.000000000000    1.000000000000

     20   D      55             0.8000000    1.000000000000

 BR        

     21   S      56        113718.2000000    0.001717696020
     21   S      57         17074.4400000    0.013167440157
     21   S      58          3889.5760000    0.065045530775
     21   S      59          1097.0960000    0.226950502703
     21   S      60           352.0624000    0.476835705678
     21   S      61           120.7002000    0.358367704268

     22   L      62          2471.1380000    0.002243686934    0.003790181843
     22   L      63           589.3838000    0.029948529125    0.029959788758
     22   L      64           191.8738000    0.125600896330    0.131822794533
     22   L      65            72.9533900   -0.000983278571    0.343270785764
     22   L      66            30.0583900   -0.601314082428    0.464234480747
     22   L      67            12.5292700   -0.491398285640    0.207938691376

     23   L      68           109.6411000   -0.005975683203   -0.006907482641
     23   L      69            38.5894800    0.055421221885   -0.030414318419
     23   L      70            16.3781800    0.268120009121    0.046027247607
     23   L      71             7.2218360   -0.154360605251    0.365068881019
     23   L      72             3.2636970   -0.720630624515    0.494923174267
     23   L      73             1.4654990   -0.331643711282    0.209039389131

     24   L      74             2.1036510    0.302902925312   -0.028267138833
     24   L      75             0.7547050   -0.215265917988    0.350306485538
     24   L      76             0.3005140   -0.963394180505    0.718244570349

     25   L      77             0.1090710    1.000000000000    1.000000000000

     26   D      78            62.2551400    0.077042284602
     26   D      79            17.3128400    0.370738374024
     26   D      80             5.6079150    0.709762750271

     27   D      81             1.7464860    1.000000000000

     28   D      82             0.4366000    1.000000000000

 H         

     29   S      83            18.7311370    0.033494604338
     29   S      84             2.8253944    0.234726953484
     29   S      85             0.6401217    0.813757326146

     30   S      86             0.1612778    1.000000000000

 H         

     31   S      87            18.7311370    0.033494604338
     31   S      88             2.8253944    0.234726953484
     31   S      89             0.6401217    0.813757326146

     32   S      90             0.1612778    1.000000000000

 H         

     33   S      91            18.7311370    0.033494604338
     33   S      92             2.8253944    0.234726953484
     33   S      93             0.6401217    0.813757326146

     34   S      94             0.1612778    1.000000000000

 H         

     35   S      95            18.7311370    0.033494604338
     35   S      96             2.8253944    0.234726953484
     35   S      97             0.6401217    0.813757326146

     36   S      98             0.1612778    1.000000000000

 H         

     37   S      99            18.7311370    0.033494604338
     37   S     100             2.8253944    0.234726953484
     37   S     101             0.6401217    0.813757326146

     38   S     102             0.1612778    1.000000000000

 H         

     39   S     103            18.7311370    0.033494604338
     39   S     104             2.8253944    0.234726953484
     39   S     105             0.6401217    0.813757326146

     40   S     106             0.1612778    1.000000000000

 H         

     41   S     107            18.7311370    0.033494604338
     41   S     108             2.8253944    0.234726953484
     41   S     109             0.6401217    0.813757326146

     42   S     110             0.1612778    1.000000000000

 H         

     43   S     111            18.7311370    0.033494604338
     43   S     112             2.8253944    0.234726953484
     43   S     113             0.6401217    0.813757326146

     44   S     114             0.1612778    1.000000000000

 TOTAL NUMBER OF BASIS SET SHELLS             =   44
 NUMBER OF CARTESIAN GAUSSIAN BASIS FUNCTIONS =  126
 NUMBER OF ELECTRONS                          =   73
 CHARGE OF MOLECULE                           =    0
 SPIN MULTIPLICITY                            =    2
 NUMBER OF OCCUPIED ORBITALS (ALPHA)          =   37
 NUMBER OF OCCUPIED ORBITALS (BETA )          =   36
 TOTAL NUMBER OF ATOMS                        =   14
 THE NUCLEAR REPULSION ENERGY IS      438.9890389589

     $CONTRL OPTIONS
     ---------------
 SCFTYP=UHF          RUNTYP=OPTIMIZE     EXETYP=RUN     
 MPLEVL=       0     CITYP =NONE         CCTYP =NONE         VBTYP =NONE    
 DFTTYP=NONE         TDDFT =NONE    
 MULT  =       2     ICHARG=       0     NZVAR =       0     COORD =UNIQUE  
 PP    =NONE         RELWFN=NONE         LOCAL =NONE         NUMGRD=       F
 ISPHER=      -1     NOSYM =       0     MAXIT =     200     UNITS =ANGS    
 PLTORB=       F     MOLPLT=       F     AIMPAC=       F     FRIEND=        
 NPRINT=       7     IREST =       0     GEOM  =INPUT   
 NORMF =       0     NORMP =       0     ITOL  =      20     ICUT  =       9
 INTTYP=BEST         GRDTYP=BEST         QMTTOL= 1.0E-06

     $SYSTEM OPTIONS
     ---------------
  REPLICATED MEMORY=   250000000 WORDS (ON EVERY NODE).
 DISTRIBUTED MEMDDI=           0 MILLION WORDS IN AGGREGATE,
 MEMDDI DISTRIBUTED OVER   1 PROCESSORS IS           0 WORDS/PROCESSOR.
 TOTAL MEMORY REQUESTED ON EACH PROCESSOR=   250000000 WORDS.
 TIMLIM=        2879.00 MINUTES, OR       2.0 DAYS.
 PARALL= F  BALTYP=  DLB     KDIAG=    0  COREFL= F
 MXSEQ2=     300 MXSEQ3=     150  mem10=         0

          ----------------
          PROPERTIES INPUT
          ----------------

     MOMENTS            FIELD           POTENTIAL          DENSITY
 IEMOM =       1   IEFLD =       0   IEPOT =       0   IEDEN =       0
 WHERE =COMASS     WHERE =NUCLEI     WHERE =NUCLEI     WHERE =NUCLEI  
 OUTPUT=BOTH       OUTPUT=BOTH       OUTPUT=BOTH       OUTPUT=BOTH    
 IEMINT=       0   IEFINT=       0                     IEDINT=       0
                                                       MORB  =       0
          EXTRAPOLATION IN EFFECT
          SOSCF IN EFFECT
          DIIS or SOSCF will be reset if energy rises
 ORBITAL PRINTING OPTION: NPREO=     1   126     2     1

     -------------------------------
     INTEGRAL TRANSFORMATION OPTIONS
     -------------------------------
     NWORD  =            0
     CUTOFF = 1.0E-09     MPTRAN =       0
     DIRTRF =       T     AOINTS =DUP     

          ----------------------
          INTEGRAL INPUT OPTIONS
          ----------------------
 NOPK  =       1 NORDER=       0 SCHWRZ=       T

     ------------------------------------------
     THE POINT GROUP IS C1 , NAXIS= 0, ORDER= 1
     ------------------------------------------

     DIMENSIONS OF THE SYMMETRY SUBSPACES ARE
 A   =  126

 ..... DONE SETTING UP THE RUN .....
 STEP CPU TIME =     0.01 TOTAL CPU TIME =          0.0 (      0.0 MIN)
 TOTAL WALL CLOCK TIME=          0.0 SECONDS, CPU UTILIZATION IS    50.00%


          -----------------------------
          STATIONARY POINT LOCATION RUN
          -----------------------------

 OBTAINING INITIAL HESSIAN, HESS=GUESS   
 CARTESIAN COORDINATE OPTIMIZATION USING BADGER'S RULE FORCE CONSTANT GUESS

          PARAMETERS CONTROLLING GEOMETRY SEARCH ARE
          METHOD =QA                  UPHESS =BFGS    
          NNEG   =         0          NFRZ   =         0
          NSTEP  =       999          IFOLOW =         1
          HESS   =GUESS               RESTAR =         F
          IHREP  =         0          HSSEND =         F
          NPRT   =         0          NPUN   =         0
          OPTTOL = 5.000E-04          RMIN   = 1.500E-03
          RMAX   = 1.000E-01          RLIM   = 7.000E-02
          DXMAX  = 3.000E-01          PURIFY =         F
          MOVIE  =         F          TRUPD  =         T
          TRMAX  = 5.000E-01          TRMIN  = 5.000E-02
          ITBMAT =         5          STPT   =         F
          STSTEP = 1.000E-02          PROJCT=          T

 BEGINNING GEOMETRY SEARCH POINT NSERCH=   0 ...

 COORDINATES OF ALL ATOMS ARE (ANGS)
   ATOM   CHARGE       X              Y              Z
 ------------------------------------------------------------
 C           6.0  -0.4372700000  -0.6529500000  -0.8269300000
 C           6.0   0.0159600000   0.7675600000  -0.8421200000
 C           6.0  -1.0656700000   1.6194100000  -0.2533000000
 C           6.0  -2.3128800000   0.7368700000  -0.3042600000
 C           6.0  -1.8114500000  -0.7066400000  -0.2355900000
 BR         35.0   0.9903400000  -0.3114900000   0.4207400000
 H           1.0  -0.1461000000  -1.3958100000  -1.5599300000
 H           1.0   0.6725700000   1.1872300000  -1.5944700000
 H           1.0  -1.2195600000   2.5237900000  -0.8515200000
 H           1.0  -0.8564400000   1.9532200000   0.7703800000
 H           1.0  -2.8278000000   0.8951900000  -1.2591800000
 H           1.0  -3.0294400000   0.9726900000   0.4887100000
 H           1.0  -2.4634400000  -1.3577600000  -0.8269300000
 H           1.0  -1.8346500000  -1.0890400000   0.7922800000

          ********************
          1 ELECTRON INTEGRALS
          ********************
 ...... END OF ONE-ELECTRON INTEGRALS ......
 STEP CPU TIME =     0.01 TOTAL CPU TIME =          0.0 (      0.0 MIN)
 TOTAL WALL CLOCK TIME=          0.0 SECONDS, CPU UTILIZATION IS    50.00%

          -------------
          GUESS OPTIONS
          -------------
          GUESS =HUCKEL            NORB  =       0          NORDER=       0
          MIX   =       F          PRTMO =       F          PUNMO =       F
          TOLZ  = 1.0E-08          TOLE  = 1.0E-05
          SYMDEN=       F          PURIFY=       F

 INITIAL GUESS ORBITALS GENERATED BY HUCKEL   ROUTINE.
 HUCKEL GUESS REQUIRES    137046 WORDS.

 SYMMETRIES FOR INITIAL GUESS ORBITALS FOLLOW.  ALPHA SET(S).
    37 ORBITALS ARE OCCUPIED (   19 CORE ORBITALS).
    20=A       21=A       22=A       23=A       24=A       25=A       26=A   
    27=A       28=A       29=A       30=A       31=A       32=A       33=A   
    34=A       35=A       36=A       37=A       38=A       39=A       40=A   
    41=A       42=A       43=A       44=A       45=A       46=A       47=A   

 SYMMETRIES FOR INITIAL GUESS ORBITALS FOLLOW.   BETA SET(S).
    36 ORBITALS ARE OCCUPIED (   19 CORE ORBITALS).
    20=A       21=A       22=A       23=A       24=A       25=A       26=A   
    27=A       28=A       29=A       30=A       31=A       32=A       33=A   
    34=A       35=A       36=A       37=A       38=A       39=A       40=A   
    41=A       42=A       43=A       44=A       45=A       46=A   
 ...... END OF INITIAL ORBITAL SELECTION ......
 STEP CPU TIME =     0.02 TOTAL CPU TIME =          0.0 (      0.0 MIN)
 TOTAL WALL CLOCK TIME=          0.1 SECONDS, CPU UTILIZATION IS    57.14%

                    ----------------------
                    AO INTEGRAL TECHNOLOGY
                    ----------------------
     S,P,L SHELL ROTATED AXIS INTEGRALS, REPROGRAMMED BY
        KAZUYA ISHIMURA (IMS) AND JOSE SIERRA (SYNSTAR).
     S,P,D,L SHELL ROTATED AXIS INTEGRALS PROGRAMMED BY
        KAZUYA ISHIMURA (INSTITUTE FOR MOLECULAR SCIENCE).
     S,P,D,F,G SHELL TO TOTAL QUARTET ANGULAR MOMENTUM SUM 5,
        ERIC PROGRAM BY GRAHAM FLETCHER (ELORET AND NASA ADVANCED
        SUPERCOMPUTING DIVISION, AMES RESEARCH CENTER).
     S,P,D,F,G,L SHELL GENERAL RYS QUADRATURE PROGRAMMED BY
        MICHEL DUPUIS (PACIFIC NORTHWEST NATIONAL LABORATORY).

          --------------------
          2 ELECTRON INTEGRALS
          --------------------

 DIRECT SCF METHOD SKIPS INTEGRAL STORAGE ON DISK.
 DIRECT TRANSFORMATION SKIPS AO INTEGRAL STORAGE ON DISK.
  ...... END OF TWO-ELECTRON INTEGRALS .....
 STEP CPU TIME =     0.01 TOTAL CPU TIME =          0.0 (      0.0 MIN)
 TOTAL WALL CLOCK TIME=          0.1 SECONDS, CPU UTILIZATION IS    62.50%

          ---------------------------
                  UHF SCF CALCULATION
          ---------------------------

     NUCLEAR ENERGY =       438.9890389589
     MAXIT =200     NPUNCH=  2     MULT=  2
     EXTRAP=T  DAMP=F  SHIFT=F  RSTRCT=F  DIIS=F  SOSCF=T
     DENSITY MATRIX CONV=  2.00E-05
     SOSCF WILL OPTIMIZE    3293 ALPHA AND    3240 BETA ROTATION ANGLES.
     SOGTOL= 2.500E-01
     MEMORY REQUIRED FOR UHF/ROHF ITERS=    253883 WORDS.

 DIRECT SCF CALCULATION, SCHWRZ=T   FDIFF=T
 SCHWARZ INEQUALITY OVERHEAD:      7940 INTEGRALS, T=        0.00

                                                                                NONZERO     BLOCKS
 ITER EX      TOTAL ENERGY        E CHANGE  DENSITY CHANGE    ORB. GRAD       INTEGRALS    SKIPPED
   1  0    -2764.6708126759 -2764.6708126759   0.749759309   0.000000000       27099611      90700
          ---------------START SECOND ORDER SCF---------------
   2  1    -2765.8675084416    -1.1966957657   0.143009158   0.068474920       27061007      95855
   3  2    -2765.9167792071    -0.0492707655   0.066106415   0.020866081       26862408     104204
   4  3    -2765.9289827157    -0.0122035086   0.065483408   0.010337629       26569392     113089
   5  4    -2765.9304264875    -0.0014437719   0.035814580   0.003813846       26307245     118948
   6  5    -2765.9308691627    -0.0004426751   0.013632317   0.001831217       26052520     124061
   7  6    -2765.9309637828    -0.0000946201   0.002884799   0.000598485       25670885     132567
   8  7    -2765.9309751439    -0.0000113611   0.002412586   0.000345780       25066333     145924
   9  8    -2765.9309772158    -0.0000020718   0.001264191   0.000159286       24517991     156687
  10  9    -2765.9309777546    -0.0000005388   0.000657653   0.000061414       24007972     166288
  11 10    -2765.9309779066    -0.0000001520   0.000303686   0.000043260       23622035     174484
  12 11    -2765.9309779565    -0.0000000499   0.000236009   0.000040586       23141895     185197
  13 12    -2765.9309779898    -0.0000000333   0.000334312   0.000037001       23016408     188688
  14 13    -2765.9309780313    -0.0000000415   0.000545342   0.000030990       23336977     182981
  15 14    -2765.9309780904    -0.0000000592   0.000695102   0.000028372       23713839     174732
  16 15    -2765.9309781478    -0.0000000574   0.000445476   0.000025627       23835793     172185
  17 16    -2765.9309781760    -0.0000000282   0.000089417   0.000009560       23453350     180295
  18 17    -2765.9309781824    -0.0000000064   0.000033611   0.000002725       22238689     202378
  19 18    -2765.9309781826    -0.0000000002   0.000019215   0.000001838       21512449     215893
  20 19    -2765.9309781828    -0.0000000002   0.000009468   0.000001045       20480348     233287

          -----------------
          DENSITY CONVERGED
          -----------------
     TIME TO FORM FOCK OPERATORS=      18.3 SECONDS (       0.9 SEC/ITER)
     FOCK TIME ON FIRST ITERATION=       1.1, LAST ITERATION=       0.7
     TIME TO SOLVE SCF EQUATIONS=       0.1 SECONDS (       0.0 SEC/ITER)

 FINAL UHF ENERGY IS    -2765.9309781828 AFTER  20 ITERATIONS

          --------------------
          SPIN SZ   =    0.500
          S-SQUARED =    0.813
          --------------------

  ----- ALPHA SET ----- 

          ------------
          EIGENVECTORS
          ------------

                      1          2          3          4          5
                 -490.0417   -65.2040   -58.5646   -58.5645   -58.5636
                     A          A          A          A          A   
    1  C  1  S    0.000003  -0.000001   0.000055   0.000056  -0.000015
    2  C  1  S    0.000026  -0.000012   0.000314   0.000385  -0.000063
    3  C  1  X   -0.000012   0.000011  -0.000022  -0.000025  -0.000001
    4  C  1  Y    0.000002   0.000003  -0.000010   0.000101  -0.000057
    5  C  1  Z   -0.000010   0.000010   0.000023   0.000006  -0.000036
    6  C  1  S   -0.000037   0.000019  -0.001985  -0.000693   0.000142
    7  C  1  X    0.000008   0.000009   0.000011  -0.000048  -0.000191
    8  C  1  Y   -0.000014  -0.000005  -0.000884  -0.000333   0.000239
    9  C  1  Z   -0.000024   0.000004  -0.000597  -0.000584   0.000255
   10  C  1 XX   -0.000016   0.000013   0.000002  -0.000062  -0.000025
   11  C  1 YY    0.000003   0.000001   0.000049   0.000095  -0.000029
   12  C  1 ZZ   -0.000011   0.000010   0.000048  -0.000013  -0.000003
   13  C  1 XY   -0.000004   0.000002  -0.000036  -0.000061   0.000012
   14  C  1 XZ   -0.000015   0.000010  -0.000064  -0.000160  -0.000008
   15  C  1 YZ   -0.000003   0.000003  -0.000032  -0.000019  -0.000004
   16  C  2  S    0.000003  -0.000001  -0.000049   0.000061  -0.000015
   17  C  2  S    0.000026  -0.000012  -0.000273   0.000418  -0.000066
   18  C  2  X   -0.000011   0.000007   0.000004  -0.000080   0.000032
   19  C  2  Y    0.000005  -0.000008  -0.000029  -0.000065   0.000047
   20  C  2  Z   -0.000010   0.000010  -0.000022   0.000011  -0.000038
   21  C  2  S   -0.000038   0.000018   0.001903  -0.000913   0.000154
   22  C  2  X    0.000015   0.000011  -0.000497   0.000214  -0.000294
   23  C  2  Y    0.000007  -0.000001  -0.000668   0.000365  -0.000084
   24  C  2  Z   -0.000025   0.000004   0.000552  -0.000669   0.000267
   25  C  2 XX   -0.000007   0.000007  -0.000043   0.000044  -0.000036
   26  C  2 YY   -0.000006   0.000006  -0.000007  -0.000003  -0.000018
   27  C  2 ZZ   -0.000011   0.000010  -0.000047  -0.000010  -0.000003
   28  C  2 XY    0.000012  -0.000007  -0.000026   0.000108  -0.000007
   29  C  2 XZ   -0.000011   0.000007   0.000022  -0.000125  -0.000004
   30  C  2 YZ    0.000011  -0.000008  -0.000052   0.000114   0.000008
   31  C  3  S   -0.000001  -0.000001   0.000010  -0.000029   0.000013
   32  C  3  S   -0.000011   0.000001   0.000058  -0.000144   0.000074
   33  C  3  X    0.000002  -0.000002  -0.000022   0.000007  -0.000004
   34  C  3  Y   -0.000002   0.000003   0.000013  -0.000007  -0.000008
   35  C  3  Z   -0.000000  -0.000002   0.000022  -0.000040   0.000004
   36  C  3  S    0.000040   0.000014  -0.000579   0.001026  -0.000454
   37  C  3  X    0.000015  -0.000004  -0.000243   0.000151  -0.000083
   38  C  3  Y   -0.000025  -0.000011   0.000337  -0.000499   0.000361
   39  C  3  Z    0.000005   0.000009  -0.000052   0.000369  -0.000045
   40  C  3 XX    0.000002  -0.000003   0.000002  -0.000034   0.000006
   41  C  3 YY    0.000003  -0.000003  -0.000001  -0.000001  -0.000011
   42  C  3 ZZ    0.000000  -0.000002   0.000011  -0.000047   0.000025
   43  C  3 XY   -0.000004   0.000002   0.000032  -0.000017   0.000016
   44  C  3 XZ    0.000001  -0.000001  -0.000023   0.000015  -0.000009
   45  C  3 YZ    0.000000   0.000001  -0.000016   0.000012  -0.000004
   46  C  4  S   -0.000001   0.000001   0.000000   0.000002   0.000001
   47  C  4  S   -0.000001   0.000003   0.000002   0.000016  -0.000006
   48  C  4  X   -0.000001  -0.000000   0.000008  -0.000025   0.000017
   49  C  4  Y    0.000000   0.000000   0.000029   0.000006  -0.000006
   50  C  4  Z    0.000001   0.000001   0.000002   0.000036  -0.000011
   51  C  4  S   -0.000005  -0.000026  -0.000033  -0.000509   0.000270
   52  C  4  X   -0.000008  -0.000007  -0.000032  -0.000197   0.000132
   53  C  4  Y    0.000003   0.000002  -0.000057   0.000065  -0.000043
   54  C  4  Z   -0.000012  -0.000012  -0.000022  -0.000440   0.000141
   55  C  4 XX   -0.000002   0.000000  -0.000000  -0.000005   0.000010
   56  C  4 YY   -0.000001   0.000001   0.000001   0.000001   0.000002
   57  C  4 ZZ   -0.000002   0.000002  -0.000000  -0.000012   0.000012
   58  C  4 XY    0.000000   0.000000  -0.000000   0.000003  -0.000004
   59  C  4 XZ   -0.000000  -0.000000   0.000003  -0.000012   0.000007
   60  C  4 YZ    0.000000   0.000000   0.000011   0.000003  -0.000002
   61  C  5  S   -0.000001  -0.000001  -0.000013  -0.000028   0.000013
   62  C  5  S   -0.000011   0.000001  -0.000073  -0.000137   0.000074
   63  C  5  X    0.000002  -0.000003   0.000026   0.000006   0.000002
   64  C  5  Y    0.000000  -0.000001  -0.000003   0.000002   0.000009
   65  C  5  Z   -0.000000  -0.000002  -0.000026  -0.000037   0.000004
   66  C  5  S    0.000040   0.000013   0.000685   0.000947  -0.000454
   67  C  5  X    0.000026   0.000003   0.000434   0.000362  -0.000274
   68  C  5  Y    0.000012   0.000012   0.000172   0.000306  -0.000247
   69  C  5  Z    0.000004   0.000008   0.000086   0.000352  -0.000040
   70  C  5 XX    0.000006  -0.000004   0.000023  -0.000012  -0.000012
   71  C  5 YY   -0.000000  -0.000001  -0.000029  -0.000023   0.000008
   72  C  5 ZZ    0.000000  -0.000002  -0.000015  -0.000045   0.000025
   73  C  5 XY    0.000002  -0.000001   0.000014   0.000022  -0.000014
   74  C  5 XZ    0.000001  -0.000001   0.000010   0.000003  -0.000004
   75  C  5 YZ   -0.000001  -0.000000  -0.000028  -0.000016   0.000009
   76  BR 6  S    0.995174   0.313155  -0.000018  -0.000370  -0.000006
   77  BR 6  S   -0.018516   1.034687  -0.000061  -0.001278  -0.000016
   78  BR 6  X   -0.000007   0.000759   0.338977   0.649738  -0.674228
   79  BR 6  Y    0.000002  -0.000236   0.936070  -0.253226   0.226575
   80  BR 6  Z   -0.000007   0.000832   0.023614   0.710853   0.696989
   81  BR 6  S   -0.018134   0.009630   0.000000  -0.000062  -0.000036
   82  BR 6  X    0.000008   0.000047   0.003810   0.007402  -0.007556
   83  BR 6  Y   -0.000003  -0.000015   0.010507  -0.002877   0.002539
   84  BR 6  Z    0.000007   0.000052   0.000269   0.008069   0.007784
   85  BR 6  S    0.002742  -0.001197   0.000063   0.001231  -0.000208
   86  BR 6  X   -0.000027  -0.000005  -0.000602  -0.001397   0.001168
   87  BR 6  Y    0.000009   0.000002  -0.001624   0.000525  -0.000391
   88  BR 6  Z   -0.000020  -0.000006  -0.000049  -0.001400  -0.001054
   89  BR 6  S   -0.000145   0.000042   0.000005   0.000091   0.000234
   90  BR 6  X    0.000009   0.000023   0.000201   0.000366  -0.000570
   91  BR 6  Y   -0.000003  -0.000007   0.000560  -0.000145   0.000189
   92  BR 6  Z    0.000002   0.000024   0.000010   0.000348   0.000421
   93  BR 6 XX   -0.009516  -0.004493  -0.000028  -0.000046   0.000048
   94  BR 6 YY   -0.009518  -0.004479   0.000029   0.000020  -0.000016
   95  BR 6 ZZ   -0.009516  -0.004496  -0.000001  -0.000065  -0.000104
   96  BR 6 XY   -0.000001   0.000005  -0.000042   0.000030  -0.000027
   97  BR 6 XZ    0.000003  -0.000039  -0.000021  -0.000066   0.000003
   98  BR 6 YZ   -0.000001   0.000012  -0.000056   0.000023  -0.000002
   99  BR 6 XX   -0.000820   0.000577  -0.000002   0.000221  -0.000074
  100  BR 6 YY   -0.000817   0.000573   0.000025   0.000233  -0.000061
  101  BR 6 ZZ   -0.000820   0.000577   0.000012   0.000237  -0.000043
  102  BR 6 XY    0.000001  -0.000001  -0.000021   0.000006   0.000006
  103  BR 6 XZ   -0.000008   0.000013  -0.000006  -0.000048  -0.000002
  104  BR 6 YZ    0.000003  -0.000004  -0.000010   0.000016   0.000001
  105  BR 6 XX    0.000960  -0.000428   0.000114   0.000738  -0.000190
  106  BR 6 YY    0.000949  -0.000414  -0.000044   0.000600  -0.000165
  107  BR 6 ZZ    0.000957  -0.000429   0.000033   0.000685  -0.000154
  108  BR 6 XY   -0.000004   0.000005   0.000121  -0.000064   0.000011
  109  BR 6 XZ    0.000021  -0.000027   0.000043   0.000245  -0.000009
  110  BR 6 YZ   -0.000006   0.000008   0.000097  -0.000083   0.000004
  111  H  7  S   -0.000001  -0.000003  -0.000013  -0.000044   0.000019
  112  H  7  S    0.000002  -0.000004  -0.000128  -0.000121   0.000267
  113  H  8  S   -0.000001  -0.000003   0.000008  -0.000047   0.000020
  114  H  8  S    0.000001  -0.000004   0.000114  -0.000143   0.000270
  115  H  9  S    0.000001   0.000001  -0.000014   0.000023  -0.000008
  116  H  9  S    0.000003   0.000006  -0.000038   0.000111  -0.000099
  117  H 10  S   -0.000006  -0.000001   0.000060  -0.000089   0.000054
  118  H 10  S    0.000009  -0.000005  -0.000031  -0.000185  -0.000116
  119  H 11  S   -0.000001  -0.000001  -0.000001  -0.000015   0.000002
  120  H 11  S   -0.000008  -0.000003  -0.000010  -0.000192   0.000079
  121  H 12  S    0.000002   0.000002   0.000003   0.000052  -0.000022
  122  H 12  S    0.000001   0.000006   0.000007   0.000145  -0.000026
  123  H 13  S    0.000001   0.000001   0.000016   0.000021  -0.000007
  124  H 13  S    0.000003   0.000006   0.000051   0.000103  -0.000098
  125  H 14  S   -0.000006  -0.000001  -0.000069  -0.000082   0.000054
  126  H 14  S    0.000009  -0.000005   0.000014  -0.000183  -0.000114

                      6          7          8          9         10
                  -11.2479   -11.2463   -11.2247   -11.2242   -11.2227
                     A          A          A          A          A   
    1  C  1  S    0.190193   0.977135  -0.000763  -0.015310   0.003193
    2  C  1  S    0.006097   0.029674  -0.000190  -0.000440  -0.000092
    3  C  1  X    0.000166   0.000464  -0.000030  -0.000046   0.000090
    4  C  1  Y    0.000272   0.000606  -0.000095  -0.000014   0.000050
    5  C  1  Z    0.000210   0.000646  -0.000033  -0.000012   0.000010
    6  C  1  S    0.001004  -0.017058  -0.000116   0.004991  -0.000851
    7  C  1  X   -0.000134   0.000322  -0.000171  -0.002110   0.000303
    8  C  1  Y    0.001187  -0.003223   0.000027   0.000154  -0.000099
    9  C  1  Z   -0.000989  -0.002190   0.000097   0.000797  -0.000277
   10  C  1 XX   -0.000451  -0.001990  -0.000009  -0.000437   0.000121
   11  C  1 YY   -0.000779  -0.001996   0.000051  -0.000142   0.000054
   12  C  1 ZZ   -0.000385  -0.001815  -0.000064  -0.000186  -0.000028
   13  C  1 XY   -0.000215  -0.000127  -0.000017  -0.000015  -0.000081
   14  C  1 XZ   -0.000006   0.000221  -0.000011   0.000152  -0.000052
   15  C  1 YZ    0.000024  -0.000013   0.000041   0.000029  -0.000021
   16  C  2  S    0.977126  -0.190358  -0.014597   0.002284   0.002270
   17  C  2  S    0.029748  -0.005471  -0.000438  -0.000110  -0.000117
   18  C  2  X    0.000030  -0.000033  -0.000026   0.000038   0.000040
   19  C  2  Y   -0.000810  -0.000008   0.000059   0.000080  -0.000095
   20  C  2  Z    0.000705  -0.000048  -0.000019  -0.000031   0.000013
   21  C  2  S   -0.015501   0.007301   0.004874  -0.001133  -0.000519
   22  C  2  X    0.001666  -0.001512  -0.001797   0.000213   0.000195
   23  C  2  Y    0.001898  -0.001734   0.001114  -0.000136  -0.000051
   24  C  2  Z   -0.002492  -0.000074   0.000810  -0.000074  -0.000241
   25  C  2 XX   -0.001875   0.000346  -0.000322   0.000098   0.000145
   26  C  2 YY   -0.002245   0.000001  -0.000252   0.000067  -0.000005
   27  C  2 ZZ   -0.001814   0.000324  -0.000192  -0.000028  -0.000038
   28  C  2 XY   -0.000001  -0.000117   0.000172   0.000004  -0.000002
   29  C  2 XZ    0.000156  -0.000084   0.000099  -0.000055  -0.000024
   30  C  2 YZ   -0.000101   0.000036  -0.000118  -0.000004   0.000042
   31  C  3  S    0.014202  -0.003358   0.977048  -0.116969  -0.152517
   32  C  3  S    0.000272  -0.000225   0.028113  -0.003521  -0.004324
   33  C  3  X    0.000090  -0.000071   0.000050   0.000043  -0.000114
   34  C  3  Y   -0.000037   0.000005  -0.000229   0.000060  -0.000019
   35  C  3  Z   -0.000094  -0.000017  -0.000104  -0.000037   0.000039
   36  C  3  S    0.004666  -0.001034  -0.017187   0.003010   0.007149
   37  C  3  X    0.001367  -0.000204  -0.000216  -0.000274  -0.001602
   38  C  3  Y   -0.001677   0.000462   0.001500  -0.000400  -0.001392
   39  C  3  Z    0.000472   0.000837   0.000604   0.000211  -0.000220
   40  C  3 XX   -0.000352   0.000044  -0.001680   0.000083  -0.000136
   41  C  3 YY   -0.000234   0.000136  -0.001572   0.000191  -0.000046
   42  C  3 ZZ   -0.000222  -0.000014  -0.001502   0.000101   0.000134
   43  C  3 XY    0.000080  -0.000017  -0.000056  -0.000018  -0.000170
   44  C  3 XZ    0.000152  -0.000051   0.000016  -0.000003   0.000007
   45  C  3 YZ   -0.000069   0.000006  -0.000029  -0.000021  -0.000013
   46  C  4  S   -0.000172  -0.000115   0.172266   0.185932   0.963064
   47  C  4  S   -0.000270  -0.000177   0.004970   0.005359   0.027696
   48  C  4  X   -0.000082  -0.000013   0.000116   0.000043   0.000149
   49  C  4  Y   -0.000040   0.000104   0.000062  -0.000136  -0.000040
   50  C  4  Z    0.000134   0.000089  -0.000030  -0.000027  -0.000068
   51  C  4  S   -0.000010  -0.000033   0.002090   0.000847  -0.018798
   52  C  4  X    0.000221   0.000148   0.001533   0.000265  -0.001810
   53  C  4  Y   -0.000101  -0.000018   0.001046  -0.001957   0.000669
   54  C  4  Z   -0.001409  -0.000942   0.000143   0.000145   0.000236
   55  C  4 XX    0.000082   0.000042  -0.000678  -0.000465  -0.001451
   56  C  4 YY   -0.000039  -0.000012  -0.000607  -0.000726  -0.001471
   57  C  4 ZZ   -0.000062  -0.000041  -0.000385  -0.000384  -0.001449
   58  C  4 XY   -0.000035  -0.000045  -0.000161   0.000125  -0.000017
   59  C  4 XZ   -0.000061  -0.000038  -0.000007  -0.000004  -0.000040
   60  C  4 YZ    0.000015   0.000017  -0.000004   0.000015   0.000012
   61  C  5  S    0.002387   0.015113   0.084562   0.971187  -0.202957
   62  C  5  S   -0.000098   0.000356   0.002277   0.027976  -0.005786
   63  C  5  X   -0.000021   0.000109   0.000037   0.000161  -0.000088
   64  C  5  Y    0.000026  -0.000036  -0.000045   0.000171   0.000072
   65  C  5  Z   -0.000049  -0.000080  -0.000059  -0.000095   0.000042
   66  C  5  S    0.000744   0.004701  -0.000750  -0.017039   0.008095
   67  C  5  X    0.000361   0.002092  -0.000171  -0.001056  -0.000441
   68  C  5  Y   -0.000023   0.000639   0.000168  -0.001041   0.002136
   69  C  5  Z    0.000942   0.000097   0.000336   0.000569  -0.000273
   70  C  5 XX   -0.000060  -0.000383  -0.000184  -0.001588   0.000113
   71  C  5 YY    0.000008  -0.000228  -0.000178  -0.001659  -0.000132
   72  C  5 ZZ   -0.000096  -0.000201  -0.000203  -0.001482   0.000206
   73  C  5 XY    0.000066   0.000018   0.000074   0.000069   0.000105
   74  C  5 XZ    0.000018   0.000168   0.000014   0.000026   0.000011
   75  C  5 YZ    0.000009  -0.000039   0.000020   0.000013   0.000012
   76  BR 6  S    0.000004   0.000003  -0.000002  -0.000001   0.000000
   77  BR 6  S    0.000010   0.000007   0.000016   0.000013  -0.000007
   78  BR 6  X   -0.000022  -0.000021   0.000008   0.000008  -0.000001
   79  BR 6  Y    0.000018  -0.000009  -0.000004   0.000000   0.000000
   80  BR 6  Z   -0.000014  -0.000009   0.000003   0.000002  -0.000002
   81  BR 6  S    0.000009   0.000007   0.000085   0.000067  -0.000049
   82  BR 6  X    0.000082   0.000080  -0.000029  -0.000029   0.000006
   83  BR 6  Y   -0.000068   0.000036   0.000017  -0.000001  -0.000001
   84  BR 6  Z    0.000055   0.000035  -0.000012  -0.000009   0.000009
   85  BR 6  S   -0.000527  -0.000352   0.000112   0.000074  -0.000169
   86  BR 6  X   -0.000620  -0.000614   0.000211   0.000207  -0.000075
   87  BR 6  Y    0.000517  -0.000282  -0.000126   0.000008   0.000019
   88  BR 6  Z   -0.000551  -0.000360   0.000099   0.000077  -0.000050
   89  BR 6  S    0.002479   0.001666   0.000730   0.000594  -0.000172
   90  BR 6  X   -0.000906  -0.000869  -0.000371  -0.000298   0.000149
   91  BR 6  Y    0.000694  -0.000337   0.000118   0.000090  -0.000046
   92  BR 6  Z   -0.000882  -0.000581  -0.000323  -0.000264   0.000025
   93  BR 6 XX    0.000027   0.000012   0.000012   0.000012  -0.000015
   94  BR 6 YY    0.000030   0.000027   0.000003  -0.000002  -0.000006
   95  BR 6 ZZ    0.000005   0.000004   0.000011   0.000008  -0.000007
   96  BR 6 XY    0.000008  -0.000005  -0.000008  -0.000001   0.000004
   97  BR 6 XZ   -0.000018  -0.000020   0.000005   0.000004   0.000001
   98  BR 6 YZ    0.000018  -0.000013  -0.000002  -0.000001  -0.000000
   99  BR 6 XX   -0.000032  -0.000044  -0.000045  -0.000052   0.000016
  100  BR 6 YY   -0.000072  -0.000027  -0.000002   0.000010  -0.000028
  101  BR 6 ZZ    0.000045   0.000030  -0.000030  -0.000028  -0.000026
  102  BR 6 XY    0.000009  -0.000028   0.000036   0.000004  -0.000017
  103  BR 6 XZ    0.000065   0.000052  -0.000020  -0.000015  -0.000004
  104  BR 6 YZ   -0.000031   0.000003   0.000003   0.000007   0.000001
  105  BR 6 XX    0.000028   0.000251  -0.000142  -0.000119  -0.000059
  106  BR 6 YY    0.000105  -0.000158  -0.000256  -0.000219   0.000055
  107  BR 6 ZZ   -0.000182  -0.000130  -0.000144  -0.000117   0.000050
  108  BR 6 XY   -0.000231   0.000219  -0.000056  -0.000032   0.000048
  109  BR 6 XZ    0.000060   0.000102   0.000025   0.000008   0.000026
  110  BR 6 YZ   -0.000130   0.000123   0.000018  -0.000030  -0.000007
  111  H  7  S   -0.000178  -0.000066   0.000019  -0.000131   0.000021
  112  H  7  S    0.000040   0.001132   0.000089  -0.000119  -0.000078
  113  H  8  S   -0.000129  -0.000145  -0.000126   0.000046   0.000012
  114  H  8  S    0.001056  -0.000401  -0.000094   0.000104  -0.000095
  115  H  9  S   -0.000054   0.000067   0.000200  -0.000066  -0.000185
  116  H  9  S    0.000314   0.000101   0.002494  -0.000124  -0.000574
  117  H 10  S   -0.000285   0.000012   0.000213  -0.000080  -0.000234
  118  H 10  S   -0.000570  -0.000486   0.002453  -0.000587  -0.000302
  119  H 11  S   -0.000161  -0.000106  -0.000159  -0.000116   0.000317
  120  H 11  S   -0.000504  -0.000339   0.000502   0.000534   0.002690
  121  H 12  S    0.000102   0.000069  -0.000153  -0.000115   0.000233
  122  H 12  S    0.000678   0.000452   0.000270   0.000335   0.002403
  123  H 13  S    0.000043  -0.000076  -0.000017   0.000200  -0.000199
  124  H 13  S    0.000203   0.000259   0.000396   0.002443  -0.000697
  125  H 14  S   -0.000094  -0.000267  -0.000026   0.000209  -0.000247
  126  H 14  S   -0.000650  -0.000330  -0.000082   0.002496  -0.000443

                     11         12         13         14         15
                   -9.8622    -7.4730    -7.4684    -7.4660    -3.1956
                     A          A          A          A          A   
    1  C  1  S    0.000039   0.000057   0.000044  -0.000003  -0.000352
    2  C  1  S   -0.000242  -0.000212   0.000036  -0.000014   0.001082
    3  C  1  X   -0.000028   0.000035  -0.000047  -0.000005   0.000774
    4  C  1  Y   -0.000063  -0.000044  -0.000014   0.000006  -0.000168
    5  C  1  Z   -0.000050  -0.000010  -0.000039   0.000000   0.000909
    6  C  1  S    0.000445   0.000513   0.000018   0.000151  -0.005719
    7  C  1  X   -0.000121   0.000075   0.000003   0.000049  -0.001638
    8  C  1  Y    0.000221   0.000160  -0.000106  -0.000070  -0.000810
    9  C  1  Z    0.000330   0.000434  -0.000138  -0.000015  -0.002051
   10  C  1 XX    0.000020   0.000032  -0.000066   0.000019   0.000558
   11  C  1 YY   -0.000060  -0.000062  -0.000020  -0.000002   0.000374
   12  C  1 ZZ   -0.000007   0.000000  -0.000040  -0.000019   0.000408
   13  C  1 XY    0.000016   0.000018  -0.000055  -0.000005   0.000287
   14  C  1 XZ    0.000047   0.000013  -0.000082  -0.000001   0.000430
   15  C  1 YZ   -0.000001   0.000021  -0.000036   0.000001   0.000134
   16  C  2  S    0.000040   0.000057  -0.000044  -0.000004   0.000400
   17  C  2  S   -0.000244  -0.000216  -0.000035  -0.000016  -0.001103
   18  C  2  X    0.000012   0.000052   0.000031  -0.000008  -0.000782
   19  C  2  Y    0.000067   0.000016  -0.000038  -0.000002   0.000331
   20  C  2  Z   -0.000054  -0.000014   0.000040   0.000000  -0.000959
   21  C  2  S    0.000461   0.000545  -0.000017   0.000170   0.005758
   22  C  2  X   -0.000238  -0.000045  -0.000062   0.000069   0.000983
   23  C  2  Y   -0.000109  -0.000176  -0.000078   0.000024  -0.001618
   24  C  2  Z    0.000349   0.000452   0.000139  -0.000006   0.002070
   25  C  2 XX   -0.000021  -0.000017   0.000008   0.000015  -0.000279
   26  C  2 YY   -0.000022  -0.000019   0.000077   0.000001  -0.000670
   27  C  2 ZZ   -0.000008  -0.000001   0.000042  -0.000018  -0.000437
   28  C  2 XY   -0.000047  -0.000056  -0.000042  -0.000009   0.000207
   29  C  2 XZ    0.000039  -0.000002   0.000047  -0.000002  -0.000312
   30  C  2 YZ   -0.000025  -0.000023  -0.000076  -0.000001   0.000386
   31  C  3  S    0.000014   0.000002   0.000012   0.000013  -0.000036
   32  C  3  S    0.000115   0.000074   0.000032   0.000043  -0.000081
   33  C  3  X    0.000001  -0.000036   0.000005   0.000017  -0.000182
   34  C  3  Y   -0.000002   0.000045  -0.000026  -0.000009   0.000249
   35  C  3  Z    0.000025   0.000026   0.000016   0.000018   0.000028
   36  C  3  S   -0.000658  -0.000359  -0.000214  -0.000329  -0.000183
   37  C  3  X   -0.000167  -0.000233   0.000051   0.000007  -0.000572
   38  C  3  Y    0.000414   0.000164   0.000127   0.000036  -0.000350
   39  C  3  Z   -0.000178  -0.000231  -0.000124  -0.000119  -0.000474
   40  C  3 XX    0.000003  -0.000036   0.000030   0.000023  -0.000224
   41  C  3 YY   -0.000010  -0.000050   0.000023   0.000032  -0.000159
   42  C  3 ZZ    0.000025   0.000000   0.000020   0.000019  -0.000062
   43  C  3 XY    0.000023   0.000040  -0.000007  -0.000003   0.000121
   44  C  3 XZ   -0.000009  -0.000012  -0.000001   0.000008  -0.000083
   45  C  3 YZ   -0.000006   0.000003  -0.000007  -0.000011   0.000037
   46  C  4  S    0.000004   0.000018  -0.000000  -0.000012   0.000002
   47  C  4  S    0.000002   0.000075  -0.000000  -0.000052   0.000008
   48  C  4  X    0.000019   0.000011   0.000002   0.000003  -0.000001
   49  C  4  Y   -0.000006  -0.000004   0.000007  -0.000001   0.000009
   50  C  4  Z   -0.000026  -0.000013   0.000000  -0.000013   0.000003
   51  C  4  S    0.000254  -0.000313  -0.000000   0.000344  -0.000099
   52  C  4  X    0.000154  -0.000073   0.000030   0.000116  -0.000190
   53  C  4  Y   -0.000049   0.000023   0.000090  -0.000035  -0.000456
   54  C  4  Z    0.000288   0.000206  -0.000002   0.000130  -0.000023
   55  C  4 XX    0.000016   0.000010   0.000003   0.000000  -0.000013
   56  C  4 YY    0.000003   0.000023  -0.000003  -0.000016   0.000014
   57  C  4 ZZ    0.000016   0.000042  -0.000000  -0.000023   0.000002
   58  C  4 XY   -0.000005   0.000005   0.000005  -0.000007  -0.000016
   59  C  4 XZ    0.000007   0.000003   0.000003   0.000004   0.000007
   60  C  4 YZ   -0.000002  -0.000001   0.000009  -0.000001   0.000024
   61  C  5  S    0.000015   0.000002  -0.000012   0.000013   0.000028
   62  C  5  S    0.000115   0.000074  -0.000032   0.000041   0.000045
   63  C  5  X    0.000003  -0.000054  -0.000019   0.000019   0.000276
   64  C  5  Y    0.000002  -0.000015  -0.000019  -0.000003   0.000094
   65  C  5  Z    0.000025   0.000026  -0.000016   0.000017  -0.000033
   66  C  5  S   -0.000650  -0.000349   0.000214  -0.000311   0.000416
   67  C  5  X   -0.000369  -0.000279   0.000031  -0.000008   0.000354
   68  C  5  Y   -0.000242  -0.000002   0.000135  -0.000030  -0.000520
   69  C  5  Z   -0.000174  -0.000232   0.000124  -0.000116   0.000493
   70  C  5 XX   -0.000020  -0.000072  -0.000034   0.000028   0.000284
   71  C  5 YY    0.000014  -0.000012  -0.000020   0.000026   0.000069
   72  C  5 ZZ    0.000025   0.000001  -0.000020   0.000018   0.000053
   73  C  5 XY   -0.000015  -0.000021   0.000002   0.000006   0.000005
   74  C  5 XZ   -0.000003  -0.000011  -0.000004   0.000013   0.000088
   75  C  5 YZ    0.000011   0.000005  -0.000006   0.000004  -0.000021
   76  BR 6  S   -0.124322   0.000946   0.000001   0.000012   0.000010
   77  BR 6  S   -0.479142   0.003758   0.000005   0.000047   0.000034
   78  BR 6  X   -0.001810  -0.275000  -0.126426   0.276591  -0.000353
   79  BR 6  Y    0.000561   0.086032  -0.390102  -0.092694  -0.001227
   80  BR 6  Z   -0.001980  -0.291549   0.004135  -0.288247   0.000055
   81  BR 6  S    1.096019  -0.007974  -0.000015  -0.000103  -0.000101
   82  BR 6  X    0.004634   0.720079   0.331153  -0.724510   0.001035
   83  BR 6  Y   -0.001435  -0.225273   1.021807   0.242806   0.003574
   84  BR 6  Z    0.005078   0.763417  -0.010830   0.755041  -0.000153
   85  BR 6  S   -0.001939  -0.002454   0.000010   0.000016   0.000032
   86  BR 6  X    0.000702   0.007356   0.002625  -0.005672  -0.000708
   87  BR 6  Y   -0.000220  -0.002305   0.008109   0.001901  -0.002173
   88  BR 6  Z    0.000631   0.007719  -0.000088   0.005928   0.000026
   89  BR 6  S    0.001458   0.000127   0.000001  -0.000091  -0.000177
   90  BR 6  X   -0.000390  -0.001229  -0.000338   0.000738  -0.000388
   91  BR 6  Y    0.000122   0.000386  -0.001045  -0.000247  -0.001601
   92  BR 6  Z   -0.000324  -0.001273   0.000011  -0.000710   0.000124
   93  BR 6 XX    0.001199  -0.000256  -0.000532   0.001720   0.263183
   94  BR 6 YY    0.001360   0.001671   0.000510   0.000193  -0.247354
   95  BR 6 ZZ    0.001165  -0.000561   0.000018  -0.001901  -0.015822
   96  BR 6 XY    0.000064   0.000780  -0.000848  -0.000636   0.436028
   97  BR 6 XZ   -0.000516  -0.002584  -0.000327   0.000048   0.140148
   98  BR 6 YZ    0.000168   0.000814  -0.001058  -0.000041   0.513643
   99  BR 6 XX   -0.000490  -0.001411  -0.000613   0.001435   0.136760
  100  BR 6 YY    0.000022  -0.000249   0.000594   0.000163  -0.128557
  101  BR 6 ZZ   -0.000587  -0.001632   0.000023  -0.001592  -0.008248
  102  BR 6 XY    0.000204   0.000462  -0.000984  -0.000531   0.226620
  103  BR 6 XZ   -0.000893  -0.001528  -0.000375   0.000026   0.072821
  104  BR 6 YZ    0.000282   0.000473  -0.001189  -0.000029   0.266990
  105  BR 6 XX   -0.002843  -0.001138   0.000065  -0.000092   0.014009
  106  BR 6 YY   -0.002919  -0.001004  -0.000058  -0.000002  -0.013084
  107  BR 6 ZZ   -0.002772  -0.001080   0.000002   0.000150  -0.000796
  108  BR 6 XY   -0.000032   0.000053   0.000098   0.000039   0.023148
  109  BR 6 XZ    0.000073  -0.000161   0.000036  -0.000018   0.007406
  110  BR 6 YZ   -0.000023   0.000049   0.000114   0.000006   0.027195
  111  H  7  S    0.000036  -0.000021  -0.000027  -0.000013   0.000379
  112  H  7  S   -0.000001  -0.000038  -0.000166  -0.000131  -0.000075
  113  H  8  S    0.000037  -0.000020   0.000027  -0.000013  -0.000396
  114  H  8  S    0.000009  -0.000031   0.000164  -0.000125   0.000087
  115  H  9  S   -0.000022  -0.000017  -0.000006   0.000000  -0.000004
  116  H  9  S   -0.000103  -0.000049  -0.000063   0.000003   0.000174
  117  H 10  S    0.000081   0.000034   0.000013   0.000021  -0.000012
  118  H 10  S   -0.000030   0.000087   0.000134   0.000187   0.000521
  119  H 11  S    0.000017   0.000026  -0.000000  -0.000001  -0.000000
  120  H 11  S    0.000143   0.000110  -0.000001   0.000034  -0.000009
  121  H 12  S   -0.000031  -0.000007   0.000000  -0.000019   0.000005
  122  H 12  S   -0.000070  -0.000051   0.000001  -0.000066   0.000009
  123  H 13  S   -0.000022  -0.000018   0.000006  -0.000000   0.000006
  124  H 13  S   -0.000101  -0.000049   0.000064   0.000006  -0.000152
  125  H 14  S    0.000080   0.000034  -0.000012   0.000019  -0.000005
  126  H 14  S   -0.000029   0.000087  -0.000137   0.000184  -0.000501

                     16         17         18         19         20
                   -3.1953    -3.1905    -3.1821    -3.1821    -1.2032
                     A          A          A          A          A   
    1  C  1  S   -0.000837  -0.000020  -0.000081  -0.000104   0.112128
    2  C  1  S    0.000620  -0.000190  -0.000468   0.000404  -0.211094
    3  C  1  X    0.000924   0.000401   0.000337   0.000228  -0.026934
    4  C  1  Y    0.000231  -0.000196  -0.000101  -0.000238  -0.058531
    5  C  1  Z    0.000814  -0.000313  -0.000351   0.000205  -0.047334
    6  C  1  S   -0.001269   0.000502   0.003473  -0.002961  -0.153475
    7  C  1  X   -0.002256  -0.001697  -0.003181   0.000025  -0.004708
    8  C  1  Y    0.000047   0.000660   0.002720   0.001152  -0.012598
    9  C  1  Z   -0.000440   0.001023   0.003095  -0.000523  -0.015658
   10  C  1 XX    0.000341  -0.000141  -0.000089   0.000160  -0.006055
   11  C  1 YY    0.000030  -0.000112  -0.000059   0.000078  -0.005798
   12  C  1 ZZ    0.000242   0.000078  -0.000067   0.000084  -0.001201
   13  C  1 XY    0.000135   0.000086   0.000021   0.000120  -0.003923
   14  C  1 XZ    0.000568  -0.000044  -0.000055   0.000127  -0.004240
   15  C  1 YZ   -0.000010  -0.000027   0.000005   0.000089  -0.004696
   16  C  2  S   -0.000822  -0.000017   0.000082  -0.000103   0.112251
   17  C  2  S    0.000558  -0.000187   0.000463   0.000401  -0.211194
   18  C  2  X    0.000600   0.000440  -0.000328   0.000323   0.011830
   19  C  2  Y   -0.000699  -0.000077   0.000122   0.000067   0.062265
   20  C  2  Z    0.000784  -0.000325   0.000350   0.000202  -0.048461
   21  C  2  S   -0.000939   0.000439  -0.003449  -0.002965  -0.154036
   22  C  2  X   -0.001839  -0.001732   0.004106  -0.000603   0.003484
   23  C  2  Y    0.001150   0.000464   0.000320  -0.000959   0.012892
   24  C  2  Z   -0.000307   0.001044  -0.003129  -0.000513  -0.016236
   25  C  2 XX    0.000124  -0.000199   0.000092   0.000036  -0.002770
   26  C  2 YY    0.000209  -0.000051   0.000048   0.000195  -0.008904
   27  C  2 ZZ    0.000232   0.000073   0.000070   0.000089  -0.001447
   28  C  2 XY   -0.000203  -0.000013  -0.000009  -0.000084   0.001516
   29  C  2 XZ    0.000466  -0.000019   0.000046   0.000056  -0.000693
   30  C  2 YZ   -0.000309   0.000054  -0.000027  -0.000148   0.006428
   31  C  3  S    0.000125  -0.000034   0.000000  -0.000054   0.059808
   32  C  3  S    0.000563  -0.000064  -0.000134  -0.000239  -0.109748
   33  C  3  X    0.000175  -0.000241   0.000261  -0.000026  -0.016510
   34  C  3  Y   -0.000241   0.000247  -0.000255   0.000000   0.043810
   35  C  3  Z    0.000042  -0.000174   0.000006  -0.000033   0.013079
   36  C  3  S   -0.003858  -0.000153   0.003331   0.002036  -0.067289
   37  C  3  X   -0.000302  -0.000315   0.000517   0.000600   0.000599
   38  C  3  Y    0.002091  -0.000593  -0.000726  -0.000374   0.002677
   39  C  3  Z    0.000125   0.001202  -0.000621  -0.000181   0.004180
   40  C  3 XX    0.000229  -0.000117   0.000132   0.000015  -0.004013
   41  C  3 YY    0.000262  -0.000235   0.000123  -0.000095  -0.005015
   42  C  3 ZZ    0.000165  -0.000055   0.000042  -0.000086  -0.000137
   43  C  3 XY   -0.000079   0.000091  -0.000093  -0.000010   0.002625
   44  C  3 XZ    0.000009  -0.000045   0.000039  -0.000021   0.001855
   45  C  3 YZ   -0.000044   0.000076  -0.000021   0.000025  -0.002520
   46  C  4  S   -0.000066   0.000090   0.000000   0.000040   0.046989
   47  C  4  S   -0.000330   0.000413   0.000000   0.000199  -0.085895
   48  C  4  X    0.000116   0.000034  -0.000020   0.000015  -0.035390
   49  C  4  Y   -0.000036  -0.000013  -0.000063  -0.000006   0.011255
   50  C  4  Z   -0.000049   0.000042   0.000000  -0.000040   0.002736
   51  C  4  S    0.003456  -0.002128   0.000006  -0.001060  -0.059771
   52  C  4  X    0.001385  -0.001256  -0.000101  -0.000759  -0.004932
   53  C  4  Y   -0.000455   0.000398  -0.000336   0.000233   0.001578
   54  C  4  Z    0.000471  -0.000692   0.000002   0.000290  -0.003677
   55  C  4 XX    0.000059  -0.000048  -0.000014  -0.000015  -0.004643
   56  C  4 YY   -0.000060   0.000136   0.000015   0.000043  -0.003459
   57  C  4 ZZ   -0.000093   0.000180   0.000000   0.000069   0.001122
   58  C  4 XY   -0.000049   0.000075  -0.000023   0.000023   0.000472
   59  C  4 XZ    0.000031  -0.000014   0.000006  -0.000017   0.000038
   60  C  4 YZ   -0.000009   0.000005   0.000018   0.000006   0.000027
   61  C  5  S    0.000126  -0.000031   0.000001  -0.000053   0.059594
   62  C  5  S    0.000561  -0.000051   0.000140  -0.000235  -0.109330
   63  C  5  X    0.000297  -0.000334  -0.000362  -0.000022  -0.038781
   64  C  5  Y    0.000100  -0.000061  -0.000057   0.000017  -0.025771
   65  C  5  Z    0.000037  -0.000171  -0.000005  -0.000032   0.013570
   66  C  5  S   -0.003813  -0.000214  -0.003375   0.001995  -0.067037
   67  C  5  X   -0.001425   0.000051  -0.000863   0.000697  -0.001116
   68  C  5  Y   -0.001538   0.000660  -0.000289  -0.000077  -0.002453
   69  C  5  Z    0.000189   0.001197   0.000639  -0.000171   0.004163
   70  C  5 XX    0.000320  -0.000227  -0.000206  -0.000014  -0.006482
   71  C  5 YY    0.000189  -0.000116  -0.000049  -0.000066  -0.002498
   72  C  5 ZZ    0.000165  -0.000050  -0.000041  -0.000084  -0.000156
   73  C  5 XY    0.000045  -0.000097  -0.000027  -0.000057  -0.001342
   74  C  5 XZ    0.000039  -0.000078  -0.000044  -0.000029   0.003000
   75  C  5 YZ    0.000027  -0.000034   0.000005  -0.000008   0.001006
   76  BR 6  S   -0.000309   0.000003   0.000000  -0.000064   0.017001
   77  BR 6  S   -0.001092  -0.000005   0.000002  -0.000210   0.061898
   78  BR 6  X   -0.001302   0.000972  -0.000001  -0.000023   0.012731
   79  BR 6  Y    0.000366  -0.000325  -0.000013   0.000006  -0.003932
   80  BR 6  Z   -0.001381  -0.001029  -0.000003  -0.000022   0.012188
   81  BR 6  S    0.003347  -0.000060  -0.000004   0.000747  -0.190908
   82  BR 6  X    0.003643  -0.002738   0.000001   0.000031  -0.041613
   83  BR 6  Y   -0.001019   0.000917   0.000031  -0.000007   0.012852
   84  BR 6  Z    0.003877   0.002905   0.000009   0.000028  -0.039824
   85  BR 6  S   -0.000842   0.000126   0.000005  -0.000521   0.367787
   86  BR 6  X   -0.000596   0.000707   0.000042   0.000308   0.077286
   87  BR 6  Y    0.000110  -0.000240   0.000114  -0.000112  -0.023846
   88  BR 6  Z   -0.000951  -0.000899  -0.000015   0.000297   0.073868
   89  BR 6  S    0.006973  -0.000360   0.000005   0.002178  -0.052800
   90  BR 6  X   -0.003840   0.000664   0.000009  -0.000912  -0.004419
   91  BR 6  Y    0.001146  -0.000223   0.000033   0.000277   0.001391
   92  BR 6  Z   -0.003716  -0.000368  -0.000002  -0.001026  -0.003484
   93  BR 6 XX    0.149976  -0.585619  -0.268785  -0.231317   0.004266
   94  BR 6 YY   -0.362612  -0.063585   0.275034   0.537049  -0.005206
   95  BR 6 ZZ    0.212414   0.649203  -0.006249  -0.305713   0.003176
   96  BR 6 XY   -0.185913   0.218514  -0.430236   0.321354  -0.003701
   97  BR 6 XZ    0.602918  -0.010549   0.164629   0.387062   0.015887
   98  BR 6 YZ   -0.169904   0.010342   0.500272  -0.133244  -0.004969
   99  BR 6 XX    0.078796  -0.304884  -0.139566  -0.120181   0.003162
  100  BR 6 YY   -0.188373  -0.033069   0.142811   0.278913  -0.000321
  101  BR 6 ZZ    0.111349   0.338104  -0.003244  -0.158823   0.003057
  102  BR 6 XY   -0.096933   0.113776  -0.223398   0.166907  -0.001356
  103  BR 6 XZ    0.314085  -0.005485   0.085496   0.200948   0.005861
  104  BR 6 YZ   -0.088529   0.005383   0.259806  -0.069181  -0.001826
  105  BR 6 XX    0.006695  -0.030422  -0.014136  -0.012340  -0.005545
  106  BR 6 YY   -0.020527  -0.003073   0.014466   0.027621   0.007622
  107  BR 6 ZZ    0.010047   0.033970  -0.000323  -0.016131  -0.005512
  108  BR 6 XY   -0.009869   0.011447  -0.022630   0.016719   0.005157
  109  BR 6 XZ    0.032466  -0.000567   0.008608   0.020363  -0.023389
  110  BR 6 YZ   -0.009168   0.000547   0.026151  -0.006999   0.007338
  111  H  7  S    0.000379   0.000234   0.000409   0.000236  -0.042095
  112  H  7  S   -0.000417   0.000778   0.001832   0.000529  -0.004884
  113  H  8  S    0.000361   0.000234  -0.000405   0.000229  -0.042208
  114  H  8  S   -0.000393   0.000792  -0.001825   0.000508  -0.005043
  115  H  9  S    0.000017   0.000145  -0.000134  -0.000079  -0.022385
  116  H  9  S   -0.000392   0.000544  -0.000219  -0.000032  -0.000175
  117  H 10  S    0.000220  -0.000232   0.000053  -0.000089  -0.026275
  118  H 10  S   -0.000406  -0.000130  -0.000093  -0.000238  -0.002764
  119  H 11  S   -0.000050  -0.000018  -0.000000   0.000071  -0.020935
  120  H 11  S    0.000148  -0.000204   0.000001   0.000048  -0.002312
  121  H 12  S   -0.000116   0.000111  -0.000000  -0.000021  -0.016682
  122  H 12  S   -0.000177  -0.000009   0.000001  -0.000153   0.001394
  123  H 13  S    0.000020   0.000144   0.000135  -0.000078  -0.022350
  124  H 13  S   -0.000393   0.000537   0.000221  -0.000040  -0.000187
  125  H 14  S    0.000218  -0.000224  -0.000049  -0.000087  -0.026085
  126  H 14  S   -0.000436  -0.000140   0.000080  -0.000246  -0.002686

                     21         22         23         24         25
                   -1.0587    -0.9837    -0.9031    -0.7883    -0.7805
                     A          A          A          A          A   
    1  C  1  S    0.016670  -0.081556  -0.086054  -0.031153  -0.100959
    2  C  1  S   -0.034071   0.155213   0.166811   0.060545   0.193414
    3  C  1  X   -0.104776  -0.066762  -0.032058   0.107998   0.049309
    4  C  1  Y   -0.004610  -0.060522   0.044079   0.068469  -0.124014
    5  C  1  Z   -0.019281   0.032272  -0.058068  -0.077671  -0.020263
    6  C  1  S   -0.035855   0.173518   0.170899   0.081001   0.293547
    7  C  1  X   -0.019914  -0.009786  -0.007358   0.038151   0.034195
    8  C  1  Y    0.002229   0.002134   0.009783   0.015439  -0.032914
    9  C  1  Z   -0.004052   0.010992  -0.018866  -0.029490  -0.008955
   10  C  1 XX    0.001441   0.011017  -0.002502  -0.004683   0.000303
   11  C  1 YY   -0.000991  -0.007326   0.011263   0.009786  -0.002014
   12  C  1 ZZ   -0.002903   0.004823  -0.002244  -0.002777   0.009145
   13  C  1 XY   -0.004460  -0.003006   0.001333   0.001683  -0.009090
   14  C  1 XZ   -0.010096  -0.004317  -0.006713   0.004386   0.003526
   15  C  1 YZ   -0.001779   0.003334   0.002680   0.002749   0.009988
   16  C  2  S    0.016517   0.080907  -0.086555  -0.034537   0.099666
   17  C  2  S   -0.033633  -0.154020   0.167941   0.067021  -0.190880
   18  C  2  X   -0.082953   0.018593  -0.052322   0.050934  -0.109565
   19  C  2  Y    0.064356  -0.088910  -0.017794  -0.117247  -0.076753
   20  C  2  Z   -0.019607  -0.031053  -0.057832  -0.077563   0.021685
   21  C  2  S   -0.036047  -0.172206   0.171354   0.090579  -0.289895
   22  C  2  X   -0.017503   0.008933  -0.011641   0.023388  -0.045972
   23  C  2  Y    0.009797  -0.004172  -0.003699  -0.034847  -0.008214
   24  C  2  Z   -0.004110  -0.011071  -0.019047  -0.029943   0.009142
   25  C  2 XX    0.004171  -0.007131   0.000888  -0.000935  -0.006895
   26  C  2 YY   -0.003584   0.003671   0.007763   0.005829   0.009243
   27  C  2 ZZ   -0.003074  -0.004997  -0.002147  -0.002339  -0.009713
   28  C  2 XY    0.000074   0.009178   0.006905   0.007340  -0.001267
   29  C  2 XZ   -0.007341   0.005337  -0.007366   0.001673   0.003053
   30  C  2 YZ    0.007370  -0.000086   0.001457  -0.005416   0.009584
   31  C  3  S   -0.085648   0.121855   0.000317   0.081233  -0.062313
   32  C  3  S    0.157296  -0.226499  -0.001304  -0.151895   0.115346
   33  C  3  X   -0.052143  -0.034294   0.088762  -0.083279  -0.099373
   34  C  3  Y   -0.031917   0.000504  -0.010603  -0.081604   0.066944
   35  C  3  Z   -0.006461   0.017640  -0.038754  -0.038605   0.045031
   36  C  3  S    0.136801  -0.209779   0.002042  -0.195191   0.154780
   37  C  3  X   -0.007820  -0.004757   0.021208  -0.023394  -0.031283
   38  C  3  Y   -0.007714  -0.003165  -0.005392  -0.030279   0.022604
   39  C  3  Z   -0.002430   0.002259  -0.010069  -0.017709   0.014336
   40  C  3 XX    0.003211  -0.002495  -0.003347   0.008793  -0.005373
   41  C  3 YY    0.005443  -0.004243   0.000964  -0.003249   0.003882
   42  C  3 ZZ    0.001233  -0.006666   0.000624  -0.011662   0.006456
   43  C  3 XY    0.007326   0.004569  -0.010032   0.006471   0.006762
   44  C  3 XZ    0.000831   0.000982  -0.004727  -0.002507   0.007181
   45  C  3 YZ    0.000284  -0.000641   0.003653   0.002095  -0.003763
   46  C  4  S   -0.122953  -0.000023   0.094040  -0.102972  -0.001617
   47  C  4  S    0.227300   0.000009  -0.177053   0.190384   0.002987
   48  C  4  X    0.041294  -0.032355   0.036189  -0.104852   0.037771
   49  C  4  Y   -0.012945  -0.100965  -0.011506   0.031446   0.123671
   50  C  4  Z   -0.002242   0.000751  -0.012472  -0.032515  -0.001130
   51  C  4  S    0.191570   0.000217  -0.188840   0.256699   0.004072
   52  C  4  X    0.006697  -0.005926   0.011105  -0.034191   0.011388
   53  C  4  Y   -0.002126  -0.018842  -0.003560   0.010365   0.037406
   54  C  4  Z   -0.002350   0.000111  -0.003099  -0.015636  -0.000424
   55  C  4 XX    0.007160  -0.007136  -0.001835   0.001881   0.005251
   56  C  4 YY    0.006244   0.007145  -0.000503  -0.010063  -0.005368
   57  C  4 ZZ    0.002318  -0.000001  -0.007847   0.014433   0.000196
   58  C  4 XY   -0.000344  -0.011548   0.000591  -0.005141   0.008356
   59  C  4 XZ   -0.000198  -0.000023   0.000100  -0.001583   0.000498
   60  C  4 YZ    0.000026  -0.000420  -0.000100   0.000684   0.001897
   61  C  5  S   -0.085228  -0.122105   0.000805   0.079262   0.065027
   62  C  5  S    0.156510   0.226953  -0.002235  -0.148288  -0.120389
   63  C  5  X   -0.023775   0.028427   0.078123  -0.023860   0.119211
   64  C  5  Y    0.056000  -0.019801  -0.043371   0.114073  -0.000197
   65  C  5  Z   -0.007199  -0.017736  -0.038144  -0.038113  -0.045648
   66  C  5  S    0.135875   0.209718   0.000898  -0.189997  -0.161400
   67  C  5  X   -0.001937   0.001988   0.020210  -0.002577   0.038491
   68  C  5  Y    0.010730  -0.005420  -0.008104   0.037899   0.001215
   69  C  5  Z   -0.002610  -0.002230  -0.009947  -0.017543  -0.014605
   70  C  5 XX   -0.002036   0.006851   0.006261  -0.000846   0.007738
   71  C  5 YY    0.010660  -0.000102  -0.008730   0.006299  -0.006071
   72  C  5 ZZ    0.001243   0.006676   0.000625  -0.011423  -0.006850
   73  C  5 XY   -0.001162   0.002409   0.005473  -0.008591  -0.003268
   74  C  5 XZ    0.000538  -0.001218  -0.006039  -0.002906  -0.008106
   75  C  5 YZ   -0.000851   0.000146  -0.000088  -0.000507   0.001114
   76  BR 6  S    0.019309   0.000077   0.025128   0.006482   0.000164
   77  BR 6  S    0.070332   0.000279   0.091497   0.023368   0.000595
   78  BR 6  X    0.005198  -0.002440  -0.008050  -0.003785  -0.006167
   79  BR 6  Y   -0.001554  -0.007683   0.002504   0.001325  -0.018866
   80  BR 6  Z    0.007776   0.000073  -0.009400  -0.014122  -0.000066
   81  BR 6  S   -0.217597  -0.000866  -0.284094  -0.073983  -0.001861
   82  BR 6  X   -0.017007   0.008048   0.026671   0.012519   0.020456
   83  BR 6  Y    0.005082   0.025344  -0.008298  -0.004385   0.062590
   84  BR 6  Z   -0.025491  -0.000240   0.031135   0.046817   0.000216
   85  BR 6  S    0.429714   0.001736   0.580822   0.153660   0.003885
   86  BR 6  X    0.032681  -0.015814  -0.053860  -0.025838  -0.042200
   87  BR 6  Y   -0.009727  -0.049847   0.016827   0.009066  -0.129268
   88  BR 6  Z    0.049591   0.000490  -0.062457  -0.096840  -0.000400
   89  BR 6  S   -0.104691  -0.000563  -0.206400  -0.085111  -0.002070
   90  BR 6  X    0.003563  -0.000245   0.004836   0.008258  -0.003748
   91  BR 6  Y   -0.001099  -0.000969  -0.001554  -0.002597  -0.012170
   92  BR 6  Z    0.003705   0.000018   0.002015  -0.006796   0.000018
   93  BR 6 XX    0.000242  -0.003792  -0.000264   0.002418  -0.005357
   94  BR 6 YY   -0.001635   0.003703   0.005414   0.005150   0.005237
   95  BR 6 ZZ    0.003788   0.000097  -0.001886  -0.006768   0.000141
   96  BR 6 XY   -0.000661  -0.006199   0.002255   0.001185  -0.008754
   97  BR 6 XZ    0.007952  -0.001739  -0.007511  -0.008224  -0.004100
   98  BR 6 YZ   -0.002473  -0.005678   0.002311   0.002681  -0.012612
   99  BR 6 XX    0.001848  -0.001225   0.002192   0.001780  -0.001650
  100  BR 6 YY    0.000661   0.001206   0.003586   0.002577   0.001646
  101  BR 6 ZZ    0.002902   0.000039   0.001692  -0.001106   0.000055
  102  BR 6 XY   -0.000442  -0.002014   0.000559   0.000352  -0.002720
  103  BR 6 XZ    0.003161  -0.000594  -0.001729  -0.002188  -0.001235
  104  BR 6 YZ   -0.000979  -0.001943   0.000532   0.000715  -0.003824
  105  BR 6 XX    0.000596   0.005577   0.009933   0.002786   0.008851
  106  BR 6 YY    0.004845  -0.005413  -0.001671  -0.004457  -0.008535
  107  BR 6 ZZ   -0.003297  -0.000147   0.012888   0.017215  -0.000120
  108  BR 6 XY    0.001585   0.009099  -0.004679  -0.003115   0.014281
  109  BR 6 XZ   -0.013731   0.002737   0.011861   0.014055   0.006382
  110  BR 6 YZ    0.004305   0.008971  -0.003628  -0.004555   0.019667
  111  H  7  S   -0.014149   0.055509   0.064278   0.042011   0.136559
  112  H  7  S    0.001687   0.016496   0.022673   0.015269   0.055429
  113  H  8  S   -0.013959  -0.055162   0.065222   0.047009  -0.135377
  114  H  8  S    0.001729  -0.016433   0.022898   0.017123  -0.055086
  115  H  9  S    0.047196  -0.082629  -0.000971  -0.082151   0.072755
  116  H  9  S    0.008541  -0.021705  -0.000184  -0.036218   0.031553
  117  H 10  S    0.043142  -0.076923  -0.011211  -0.104290   0.071885
  118  H 10  S    0.008208  -0.017808  -0.003562  -0.043642   0.032223
  119  H 11  S    0.068669   0.000003  -0.069700   0.121843   0.001808
  120  H 11  S    0.010968  -0.000001  -0.023030   0.051656   0.000763
  121  H 12  S    0.064772   0.000003  -0.082530   0.107043   0.001828
  122  H 12  S    0.011639   0.000021  -0.027215   0.048325   0.000849
  123  H 13  S    0.047025   0.082815  -0.001385  -0.079819  -0.075750
  124  H 13  S    0.008487   0.021743  -0.000372  -0.035209  -0.032923
  125  H 14  S    0.042888   0.076987  -0.011457  -0.101810  -0.075045
  126  H 14  S    0.008209   0.017843  -0.003682  -0.042634  -0.033646

                     26         27         28         29         30
                   -0.6922    -0.6490    -0.5859    -0.5739    -0.5238
                     A          A          A          A          A   
    1  C  1  S    0.006226  -0.005571  -0.000192  -0.005151  -0.016992
    2  C  1  S   -0.017920   0.012564  -0.001370   0.006169   0.034095
    3  C  1  X   -0.054660   0.151496   0.047025  -0.106735  -0.132420
    4  C  1  Y    0.191025  -0.027381   0.008085  -0.110462  -0.189586
    5  C  1  Z    0.158573   0.040896   0.149100  -0.149978   0.115559
    6  C  1  S   -0.013706   0.033625   0.049822   0.003386   0.066576
    7  C  1  X   -0.032925   0.066616   0.026933  -0.051929  -0.072690
    8  C  1  Y    0.090837  -0.018253   0.027785  -0.051201  -0.096761
    9  C  1  Z    0.087849   0.016124   0.094558  -0.085667   0.065107
   10  C  1 XX   -0.002349  -0.002677  -0.000954  -0.003890  -0.002780
[...]
    9             0.000000  -0.000000  -0.000000   0.000000   0.006889
   10            -0.000000  -0.000000  -0.000000   0.000000   0.007367
   11            -0.000000   0.000000   0.000000  -0.000000   0.007598
   12             0.000000   0.000000   0.000000   0.000000   0.006696
   13             0.000000  -0.000000  -0.000000   0.000000   0.006849
   14            -0.000000  -0.000000  -0.000000  -0.000000   0.007316

                     21         22         23         24         25

                  1.000000   1.000000   1.000000   1.000000   1.000000

    1             0.202902   0.102220   0.001624   0.076558   0.233978
    2             0.219179   0.089519   0.001763   0.077226   0.235387
    3             0.063610   0.304596   0.000328   0.167795   0.098788
    4             0.296158   0.049294   0.001487   0.230803   0.046512
    5             0.079175   0.290493   0.000442   0.166881   0.100643
    6             0.006005   0.000037   0.993682   0.000060   0.000126
    7             0.019570   0.010059   0.000099   0.003916   0.110202
    8             0.022123   0.007618   0.000103   0.004102   0.110210
    9             0.003991   0.039490   0.000004   0.034843   0.016011
   10             0.003618   0.035722  -0.000021   0.041391   0.015548
   11             0.035108   0.000067   0.000197   0.063094   0.000000
   12             0.036614   0.000071   0.000268   0.057912   0.000000
   13             0.006268   0.037202   0.000024   0.034495   0.016596
   14             0.005680   0.033614   0.000001   0.040924   0.015998

                     26         27         28         29         30

                  1.000000   1.000000   1.000000   1.000000   1.000000

    1             0.205749   0.033962   0.007713   0.246139   0.133395
    2             0.204706   0.035033   0.008544   0.246652   0.161440
    3             0.098145   0.169503   0.278725   0.114209   0.217904
    4             0.087787   0.252989   0.016389   0.052091   0.019230
    5             0.097371   0.168706   0.278479   0.115338   0.209057
    6             0.000308   0.001057   0.000850   0.000087   0.000966
    7             0.096771   0.000092   0.000257   0.053010   0.056848
    8             0.094737   0.000085   0.000253   0.052884   0.063294
    9             0.029010   0.041478   0.083230   0.045813   0.042688
   10             0.009924   0.053272   0.121455   0.009124   0.026672
   11             0.011939   0.074092   0.000004   0.001576   0.000198
   12             0.025152   0.075650   0.000002   0.007723   0.000313
   13             0.028782   0.041122   0.082447   0.046481   0.041017
   14             0.009619   0.052960   0.121653   0.008874   0.026978

                     31         32         33         34         35

                  1.000000   1.000000   1.000000   1.000000   1.000000

    1             0.104426   0.075212   0.044995   0.000226   0.000595
    2             0.084820   0.069004   0.045104   0.000712   0.000215
    3             0.133393   0.089731   0.229084   0.000280   0.000735
    4             0.318684   0.294883   0.329415   0.000346   0.000075
    5             0.140876   0.095050   0.228602   0.000447   0.000292
    6             0.002638   0.001944   0.000203   0.997402   0.997334
    7             0.013959   0.003379   0.029611   0.000004   0.000189
    8             0.008150   0.002117   0.029400   0.000128   0.000117
    9             0.005845   0.013337   0.030138   0.000033   0.000099
   10             0.012475   0.038131   0.001571   0.000029   0.000233
   11             0.141347   0.073371   0.000001   0.000186   0.000041
   12             0.014008   0.190126   0.000000   0.000001   0.000001
   13             0.010088   0.011234   0.030397   0.000079   0.000007
   14             0.009291   0.042482   0.001478   0.000128   0.000067

                     36

                  1.000000

    1             0.385796
    2             0.406330
    3             0.027527
    4             0.008739
    5             0.026449
    6             0.027603
    7             0.000034
    8             0.000029
    9             0.022273
   10             0.034567
   11             0.005784
   12             0.000448
   13             0.021273
   14             0.033148

     ATOMIC SPIN POPULATION (ALPHA MINUS BETA)
       ATOM         MULL.POP.                    LOW.POP.
    1 C             0.048977                     0.039181
    2 C            -0.016915                    -0.007239
    3 C             0.000918                    -0.000101
    4 C             0.000427                     0.000258
    5 C            -0.007183                    -0.003128
    6 BR            0.972122                     0.969914
    7 H            -0.003418                    -0.001804
    8 H             0.000972                     0.000473
    9 H            -0.000750                    -0.000579
   10 H             0.000800                     0.000175
   11 H            -0.000038                    -0.000039
   12 H             0.000068                     0.000043
   13 H             0.000868                     0.000696
   14 H             0.003153                     0.002151


          ********* ALL ELECTRONS ********

               ----- POPULATIONS IN EACH AO -----
                             MULLIKEN      LOWDIN
              1  C  1  S      1.99671     1.97989
              2  C  1  S      0.66656     0.35738
              3  C  1  X      0.66312     0.59998
              4  C  1  Y      0.75535     0.67157
              5  C  1  Z      0.55814     0.51468
              6  C  1  S      0.52524     0.30619
              7  C  1  X      0.29812     0.39559
              8  C  1  Y      0.25301     0.37248
              9  C  1  Z      0.41105     0.46342
             10  C  1 XX      0.01050     0.15340
             11  C  1 YY      0.02844     0.18757
             12  C  1 ZZ     -0.01000     0.11955
             13  C  1 XY      0.01422     0.02648
             14  C  1 XZ      0.00644     0.01005
             15  C  1 YZ      0.01096     0.01850
             16  C  2  S      1.99672     1.97987
             17  C  2  S      0.66626     0.35715
             18  C  2  X      0.67348     0.60493
             19  C  2  Y      0.74446     0.66598
             20  C  2  Z      0.55908     0.51489
             21  C  2  S      0.52721     0.30619
             22  C  2  X      0.34731     0.42344
             23  C  2  Y      0.20104     0.34310
             24  C  2  Z      0.41559     0.46602
             25  C  2 XX      0.01906     0.16067
             26  C  2 YY      0.01886     0.17857
             27  C  2 ZZ     -0.00974     0.11937
             28  C  2 XY      0.01443     0.02687
             29  C  2 XZ      0.00667     0.01006
             30  C  2 YZ      0.01118     0.01934
             31  C  3  S      1.99683     1.97956
             32  C  3  S      0.63042     0.34637
             33  C  3  X      0.65929     0.60257
             34  C  3  Y      0.69596     0.62837
             35  C  3  Z      0.68974     0.62349
             36  C  3  S      0.61656     0.31121
             37  C  3  X      0.27810     0.39530
             38  C  3  Y      0.31660     0.41543
             39  C  3  Z      0.37446     0.46737
             40  C  3 XX      0.00813     0.14420
             41  C  3 YY      0.01784     0.15382
             42  C  3 ZZ      0.01740     0.15225
             43  C  3 XY      0.01314     0.02068
             44  C  3 XZ      0.00951     0.01545
             45  C  3 YZ      0.01416     0.02287
             46  C  4  S      1.99685     1.97965
             47  C  4  S      0.62880     0.34768
             48  C  4  X      0.68362     0.62076
             49  C  4  Y      0.65052     0.59718
             50  C  4  Z      0.70037     0.63382
             51  C  4  S      0.61972     0.31296
             52  C  4  X      0.31041     0.41291
             53  C  4  Y      0.26127     0.38328
             54  C  4  Z      0.40179     0.48123
             55  C  4 XX      0.01446     0.14934
             56  C  4 YY      0.01088     0.14920
             57  C  4 ZZ      0.02152     0.15668
             58  C  4 XY      0.01123     0.01827
             59  C  4 XZ      0.01629     0.02619
             60  C  4 YZ      0.00429     0.00817
             61  C  5  S      1.99683     1.97956
             62  C  5  S      0.63050     0.34674
             63  C  5  X      0.67111     0.60942
             64  C  5  Y      0.68416     0.62227
             65  C  5  Z      0.69009     0.62398
             66  C  5  S      0.61646     0.31126
             67  C  5  X      0.29423     0.40641
             68  C  5  Y      0.30236     0.40454
             69  C  5  Z      0.37216     0.46606
             70  C  5 XX      0.01291     0.14990
             71  C  5 YY      0.01621     0.15161
             72  C  5 ZZ      0.01841     0.15385
             73  C  5 XY      0.01081     0.01899
             74  C  5 XZ      0.01070     0.01632
             75  C  5 YZ      0.01116     0.01914
             76  BR 6  S      1.99876     1.99782
             77  BR 6  S      1.99781     1.91247
             78  BR 6  X      1.99981     1.99824
             79  BR 6  Y      1.99985     1.99867
             80  BR 6  Z      1.99979     1.99801
             81  BR 6  S      2.00005     0.77943
             82  BR 6  X      1.99739     1.96519
             83  BR 6  Y      1.99851     1.97544
             84  BR 6  Z      1.99680     1.95967
             85  BR 6  S      1.63307     0.58175
             86  BR 6  X      1.16259     1.08309
             87  BR 6  Y      1.40371     1.29402
             88  BR 6  Z      1.03151     0.96857
             89  BR 6  S      0.41372     0.38552
             90  BR 6  X      0.46033     0.57505
             91  BR 6  Y      0.58142     0.71534
             92  BR 6  Z      0.39655     0.50113
             93  BR 6 XX      0.93128     1.24875
             94  BR 6 YY      0.93234     1.24995
             95  BR 6 ZZ      0.93076     1.24815
             96  BR 6 XY      1.39449     1.34720
             97  BR 6 XZ      1.39351     1.34641
             98  BR 6 YZ      1.39409     1.34686
             99  BR 6 XX      0.38766     0.57342
            100  BR 6 YY      0.38579     0.57204
            101  BR 6 ZZ      0.38866     0.57417
            102  BR 6 XY      0.58456     0.61493
            103  BR 6 XZ      0.58577     0.61595
            104  BR 6 YZ      0.58501     0.61529
            105  BR 6 XX      0.00001     0.29159
            106  BR 6 YY      0.00373     0.29496
            107  BR 6 ZZ     -0.00129     0.29049
            108  BR 6 XY      0.02103     0.03795
            109  BR 6 XZ      0.02315     0.04011
            110  BR 6 YZ      0.02103     0.03798
            111  H  7  S      0.52677     0.48646
            112  H  7  S      0.27896     0.34818
            113  H  8  S      0.52677     0.48735
            114  H  8  S      0.27831     0.34790
            115  H  9  S      0.52920     0.49936
            116  H  9  S      0.30093     0.35191
            117  H 10  S      0.52745     0.49855
            118  H 10  S      0.29608     0.35124
            119  H 11  S      0.53067     0.50204
            120  H 11  S      0.29908     0.34927
            121  H 12  S      0.53004     0.50025
            122  H 12  S      0.30050     0.35191
            123  H 13  S      0.52930     0.49838
            124  H 13  S      0.30083     0.35171
            125  H 14  S      0.52751     0.49898
            126  H 14  S      0.29664     0.35141

          ----- MULLIKEN ATOMIC OVERLAP POPULATIONS -----
          (OFF-DIAGONAL ELEMENTS NEED TO BE MULTIPLIED BY 2)

             1           2           3           4           5

    1    4.9988129
    2    0.6851489   5.0016895
    3   -0.0746569   0.3577425   5.0934797
    4   -0.0641427  -0.0641937   0.3386531   5.1175467
    5    0.3578001  -0.0746042  -0.0742728   0.3387449   5.0932508
    6    0.0040907   0.0049986  -0.0010373   0.0000536  -0.0007364
    7    0.3859468  -0.0312695   0.0039158   0.0035289  -0.0313209
    8   -0.0313127   0.3861149  -0.0313124   0.0035296   0.0039100
    9    0.0012074  -0.0389727   0.4010446  -0.0357691   0.0048725
   10   -0.0027461  -0.0390862   0.3922537  -0.0346434   0.0021171
   11    0.0016467   0.0016606  -0.0393576   0.4008661  -0.0394697
   12    0.0039794   0.0039541  -0.0353236   0.3984076  -0.0353949
   13   -0.0389522   0.0012712   0.0048679  -0.0357963   0.4009601
   14   -0.0389732  -0.0028440   0.0021422  -0.0347609   0.3922376

             6           7           8           9          10

    6   35.0268867
    7   -0.0001101   0.4764626
    8   -0.0002627  -0.0011151   0.4758391
    9    0.0000634  -0.0000942  -0.0003452   0.5364289
   10   -0.0004205  -0.0001674   0.0005119  -0.0331664   0.5372482
   11   -0.0000001  -0.0001511  -0.0001511  -0.0056398   0.0035100
   12   -0.0000212  -0.0000616  -0.0000611   0.0007074  -0.0026688
   13    0.0000468  -0.0003326  -0.0000947   0.0000074  -0.0002138
   14   -0.0003025   0.0005024  -0.0001667  -0.0002139   0.0010025

            11          12          13          14

   11    0.5351553
   12   -0.0262024   0.5252346
   13   -0.0056517   0.0007044   0.5364174
   14    0.0035353  -0.0027160  -0.0331123   0.5378153

          TOTAL MULLIKEN AND LOWDIN ATOMIC POPULATIONS
       ATOM         MULL.POP.    CHARGE          LOW.POP.     CHARGE
    1 C             6.187849   -0.187849         6.176721   -0.176721
    2 C             6.191610   -0.191610         6.176457   -0.176457
    3 C             6.338139   -0.338139         6.278924   -0.278924
    4 C             6.332024   -0.332024         6.277308   -0.277308
    5 C             6.338094   -0.338094         6.280052   -0.280052
    6 BR           35.033249   -0.033249        35.035623   -0.035623
    7 H             0.805734    0.194266         0.834645    0.165355
    8 H             0.805084    0.194916         0.835249    0.164751
    9 H             0.830130    0.169870         0.851274    0.148726
   10 H             0.823531    0.176469         0.849795    0.150205
   11 H             0.829751    0.170249         0.851305    0.148695
   12 H             0.830538    0.169462         0.852162    0.147838
   13 H             0.830122    0.169878         0.850095    0.149905
   14 H             0.824146    0.175854         0.850390    0.149610

          -------------------------------
          BOND ORDER AND VALENCE ANALYSIS     BOND ORDER THRESHOLD=0.050
          -------------------------------

                   BOND                       BOND                       BOND
  ATOM PAIR DIST  ORDER      ATOM PAIR DIST  ORDER      ATOM PAIR DIST  ORDER
    1   2  1.323  1.926        1   5  1.511  0.987        1   7  1.076  0.940
    2   3  1.511  0.987        2   8  1.076  0.940        3   4  1.546  0.966
    3   9  1.086  0.956        3  10  1.088  0.947        4   5  1.546  0.966
    4  11  1.085  0.962        4  12  1.084  0.961        5  13  1.086  0.956
    5  14  1.088  0.947

                       TOTAL       BONDED        FREE
      ATOM            VALENCE     VALENCE     VALENCE
    1 C                 3.834       3.832       0.002
    2 C                 3.834       3.834       0.000
    3 C                 3.788       3.788       0.000
    4 C                 3.778       3.778       0.000
    5 C                 3.789       3.789       0.000
    6 BR                1.033       0.066       0.966
    7 H                 0.931       0.931       0.000
    8 H                 0.931       0.931       0.000
    9 H                 0.927       0.927       0.000
   10 H                 0.922       0.922       0.000
   11 H                 0.927       0.927       0.000
   12 H                 0.932       0.932       0.000
   13 H                 0.927       0.927       0.000
   14 H                 0.922       0.922       0.000

          -----------------------------------------
          ATOMIC SPIN DENSITY AT THE NUCLEUS (A.U.)
          -----------------------------------------
                            SPIN DENS    ALPHA DENS     BETA DENS
    1  C            6.0     0.0091265      59.11568      59.10656
    2  C            6.0    -0.0014967      59.11100      59.11250
    3  C            6.0     0.0002797      59.01426      59.01398
    4  C            6.0     0.0002886      59.01842      59.01813
    5  C            6.0    -0.0021744      59.01311      59.01529
    6  BR          35.0    -0.0253884   13902.68107   13902.70646
    7  H            1.0    -0.0009262       0.21139       0.21232
    8  H            1.0     0.0005752       0.21218       0.21161
    9  H            1.0    -0.0003136       0.21373       0.21404
   10  H            1.0    -0.0004085       0.21293       0.21334
   11  H            1.0    -0.0000291       0.21492       0.21495
   12  H            1.0    -0.0000012       0.21434       0.21434
   13  H            1.0     0.0004627       0.21417       0.21371
   14  H            1.0     0.0008070       0.21357       0.21276

          ---------------------
          ELECTROSTATIC MOMENTS
          ---------------------

 POINT   1           X           Y           Z (BOHR)    CHARGE
                 0.753815   -0.053967    0.930036       -0.00 (A.U.)
         DX          DY          DZ         /D/  (DEBYE)
    -0.552313    0.137274   -0.325927    0.655838
 ...... END OF PROPERTY EVALUATION ......
 STEP CPU TIME =     0.06 TOTAL CPU TIME =        534.5 (      8.9 MIN)
 TOTAL WALL CLOCK TIME=        539.1 SECONDS, CPU UTILIZATION IS    99.15%
  $VIB   
          IVIB=   0 IATOM=   0 ICOORD=   0 E=    -2766.0670884023
 -3.438554331E-04 2.031138530E-04-1.572320317E-05 2.524367534E-05-3.807243252E-05
  1.497077975E-04 2.790513198E-04-5.626419941E-05-1.003007602E-04-7.320899639E-05
 -8.707789269E-05 7.512108262E-05 5.085576850E-05-1.443428556E-04-3.866179531E-05
 -5.237780760E-05 1.179898634E-04 1.333754178E-04 8.668980515E-06-1.959740354E-04
 -2.010721526E-04-6.839268868E-05 7.975808280E-05-4.995235724E-05 3.425459186E-05
  2.041889059E-05 7.538110999E-05 3.292010200E-05-5.805773455E-05-3.288596781E-05
  4.219924765E-05-8.766081111E-05-1.198625005E-04-4.302393828E-05-3.498433370E-05
  1.017063278E-04 9.742176436E-05 1.232145282E-04 1.252668379E-04 1.024095653E-05
  1.579396982E-04-1.020997059E-04
 -5.523133853E-01 1.372741023E-01-3.259274510E-01
 ......END OF GEOMETRY SEARCH......
 STEP CPU TIME =     0.00 TOTAL CPU TIME =        534.5 (      8.9 MIN)
 TOTAL WALL CLOCK TIME=        539.1 SECONDS, CPU UTILIZATION IS    99.15%
               1162911  WORDS OF DYNAMIC MEMORY USED
 EXECUTION OF GAMESS TERMINATED NORMALLY Mon Oct 31 05:36:33 2022
 DDI: 263640 bytes (0.3 MB / 0 MWords) used by master data server.

 ----------------------------------------
 CPU timing information for all processes
 ========================================
 0: 533.42 + 1.513 = 534.556
 ----------------------------------------
 ddikick.x: exited gracefully.
----- accounting info -----
Files used on the master node chemcompute-node-0.novalocal were:
-rw-r--r--. 1 chemcomp chemcomp     1151 Oct 31 05:27 /scratch/141894/483971.F05
-rw-rw-r--. 1 chemcomp chemcomp 75366400 Oct 31 05:36 /scratch/141894/483971.F10
Mon Oct 31 05:36:36 UTC 2022
0.093u 0.046s 9:02.50 0.0%	0+0k 8+208io 0pf+0w
Finishing Up...
Looking for IR data...
Exception parsing IR in output file
could not convert string to float: 'PROPERTY'
Looking for Raman data...
Exception parsing Raman in output file
could not convert string to float: 'PROPERTY'
Looking for thermodynamics data...
Looking for UV-Vis data...
Exception parsing uvvis in output file
could not convert string to float: 'PROPERTY'
chemcompute.org
{'UTCtimestamp': '2022-10-31T05:36:38.665274', 'cluster': 'jetstream2', 'clusterJobNumber': '141894', 'status': 'COMPLETE', 'nodeList': 'chemcompute-node-0'}
141894
